* EQUILIBRATED WATER
*  DATE:     6/ 1/26      0:49:17      CREATED BY USER: charmm-gui
*
     47871  EXT
         1         1  TIP3      OH2           -46.9193405720      -48.7490224159      -11.1065263352  W2        1               0.0000000000
         2         1  TIP3      H1            -46.8302305720      -47.8052024159      -11.2388163352  W2        1               0.0000000000
         3         1  TIP3      H2            -47.5575805720      -49.0243824159      -11.7645863352  W2        1               0.0000000000
         4         2  TIP3      OH2           -47.9862105720      -49.4939524159       -7.6877063352  W2        2               0.0000000000
         5         2  TIP3      H1            -48.0244605720      -50.1403224159       -6.9827463352  W2        2               0.0000000000
         6         2  TIP3      H2            -48.3085605720      -49.9605124159       -8.4588363352  W2        2               0.0000000000
         7         3  TIP3      OH2           -55.6177105720      -49.8797424159       -6.0947163352  W2        3               0.0000000000
         8         3  TIP3      H1            -55.5765005720      -50.5054124159       -5.3714763352  W2        3               0.0000000000
         9         3  TIP3      H2            -54.9149405720      -49.2558824159       -5.9126763352  W2        3               0.0000000000
        10         4  TIP3      OH2           -44.2801905720      -46.5549124159       -9.3861963352  W2        4               0.0000000000
        11         4  TIP3      H1            -44.7209205720      -47.2753124159       -8.9356363352  W2        4               0.0000000000
        12         4  TIP3      H2            -44.2932205720      -45.8341924159       -8.7564263352  W2        4               0.0000000000
        13         5  TIP3      OH2           -54.6944005720      -45.4298524159       -7.5598063352  W2        5               0.0000000000
        14         5  TIP3      H1            -55.0638805720      -46.2318024159       -7.9293763352  W2        5               0.0000000000
        15         5  TIP3      H2            -53.7532905720      -45.5983624159       -7.5134663352  W2        5               0.0000000000
        16         6  TIP3      OH2           -58.0843505720      -51.7695924159      -12.1669263352  W2        6               0.0000000000
        17         6  TIP3      H1            -58.5320105720      -50.9237224159      -12.1852763352  W2        6               0.0000000000
        18         6  TIP3      H2            -58.6452305720      -52.3491724159      -12.6824163352  W2        6               0.0000000000
        19         7  TIP3      OH2           -57.3737405720      -49.6076324159      -10.0411263352  W2        7               0.0000000000
        20         7  TIP3      H1            -57.1603905720      -50.3774724159       -9.5138263352  W2        7               0.0000000000
        21         7  TIP3      H2            -56.6359805720      -49.5179624159      -10.6443663352  W2        7               0.0000000000
        22         8  TIP3      OH2           -47.1686405720      -41.4507424159       -9.1741563352  W2        8               0.0000000000
        23         8  TIP3      H1            -46.5490005720      -42.1272724159       -9.4472363352  W2        8               0.0000000000
        24         8  TIP3      H2            -47.3769005720      -41.6686624159       -8.2656663352  W2        8               0.0000000000
        25         9  TIP3      OH2           -49.5967705720      -47.0618124159       -7.2816063352  W2        9               0.0000000000
        26         9  TIP3      H1            -49.2929805720      -47.7476724159       -7.8761963352  W2        9               0.0000000000
        27         9  TIP3      H2            -48.8753705720      -46.9429424159       -6.6638063352  W2        9               0.0000000000
        28        10  TIP3      OH2           -40.9337905720      -55.4602824159       -6.4209863352  W2        10              0.0000000000
        29        10  TIP3      H1            -40.8845705720      -54.8501624159       -5.6850763352  W2        10              0.0000000000
        30        10  TIP3      H2            -40.5082805720      -54.9991924159       -7.1438763352  W2        10              0.0000000000
        31        11  TIP3      OH2           -46.4560705720      -52.6675724159       -6.9541263352  W2        11              0.0000000000
        32        11  TIP3      H1            -46.3134805720      -53.6138724159       -6.9339663352  W2        11              0.0000000000
        33        11  TIP3      H2            -46.5621705720      -52.4605924159       -7.8826363352  W2        11              0.0000000000
        34        12  TIP3      OH2           -53.3012405720      -54.5659324159       -9.6816463352  W2        12              0.0000000000
        35        12  TIP3      H1            -53.2581305720      -53.7060824159      -10.1000163352  W2        12              0.0000000000
        36        12  TIP3      H2            -53.7588305720      -55.1184624159      -10.3153263352  W2        12              0.0000000000
        37        13  TIP3      OH2           -45.5789705720      -54.4353724159      -11.2808163352  W2        13              0.0000000000
        38        13  TIP3      H1            -44.9325405720      -54.7640524159      -10.6560563352  W2        13              0.0000000000
        39        13  TIP3      H2            -45.0690305720      -53.9174724159      -11.9036763352  W2        13              0.0000000000
        40        14  TIP3      OH2           -56.6810905720      -52.1693524159       -8.9195063352  W2        14              0.0000000000
        41        14  TIP3      H1            -56.0274305720      -52.7191824159       -8.4874963352  W2        14              0.0000000000
        42        14  TIP3      H2            -56.6571605720      -52.4434524159       -9.8363063352  W2        14              0.0000000000
        43        15  TIP3      OH2           -51.5246405720      -50.6192224159       -9.7043563352  W2        15              0.0000000000
        44        15  TIP3      H1            -50.9085405720      -51.1456824159       -9.1949563352  W2        15              0.0000000000
        45        15  TIP3      H2            -52.1107605720      -51.2593524159      -10.1079963352  W2        15              0.0000000000
        46        16  TIP3      OH2           -40.5423305720      -53.9823624159       -4.1850063352  W2        16              0.0000000000
        47        16  TIP3      H1            -41.2308705720      -53.3242924159       -4.2803463352  W2        16              0.0000000000
        48        16  TIP3      H2            -40.5268705720      -54.1795724159       -3.2484663352  W2        16              0.0000000000
        49        17  TIP3      OH2           -54.4910505720      -55.6480924159       -5.6075663352  W2        17              0.0000000000
        50        17  TIP3      H1            -54.7098805720      -55.1180324159       -6.3739663352  W2        17              0.0000000000
        51        17  TIP3      H2            -55.1589605720      -55.4215424159       -4.9604263352  W2        17              0.0000000000
        52        18  TIP3      OH2           -47.1220705720      -46.1479824159      -12.0636563352  W2        18              0.0000000000
        53        18  TIP3      H1            -47.4175605720      -46.4707524159      -12.9149663352  W2        18              0.0000000000
        54        18  TIP3      H2            -47.4462905720      -45.2483124159      -12.0223963352  W2        18              0.0000000000
        55        19  TIP3      OH2           -51.9219105720      -47.9725224159       -5.3201963352  W2        19              0.0000000000
        56        19  TIP3      H1            -52.6620005720      -47.3743724159       -5.2166763352  W2        19              0.0000000000
        57        19  TIP3      H2            -51.2079605720      -47.4185624159       -5.6358363352  W2        19              0.0000000000
        58        20  TIP3      OH2           -43.8151305720      -55.1444424159       -9.3002263352  W2        20              0.0000000000
        59        20  TIP3      H1            -44.0303305720      -55.9101024159       -8.7676263352  W2        20              0.0000000000
        60        20  TIP3      H2            -43.1593905720      -54.6719824159       -8.7873763352  W2        20              0.0000000000
        61        21  TIP3      OH2           -54.8973205720      -53.7559124159       -7.6553463352  W2        21              0.0000000000
        62        21  TIP3      H1            -54.2836905720      -53.1231524159       -7.2821063352  W2        21              0.0000000000
        63        21  TIP3      H2            -54.3852505720      -54.2284124159       -8.3116563352  W2        21              0.0000000000
        64        22  TIP3      OH2           -53.5144805720      -46.0082224159       -4.5330463352  W2        22              0.0000000000
        65        22  TIP3      H1            -53.5197205720      -45.1288724159       -4.9111163352  W2        22              0.0000000000
        66        22  TIP3      H2            -54.3680705720      -46.0918124159       -4.1080563352  W2        22              0.0000000000
        67        23  TIP3      OH2           -57.3933905720      -46.3374324159      -13.7511163352  W2        23              0.0000000000
        68        23  TIP3      H1            -57.6653005720      -46.1083324159      -14.6398263352  W2        23              0.0000000000
        69        23  TIP3      H2            -57.3478205720      -45.4995524159      -13.2905863352  W2        23              0.0000000000
        70        24  TIP3      OH2           -43.7684205720      -44.7158424159       -7.0382663352  W2        24              0.0000000000
        71        24  TIP3      H1            -44.7100505720      -44.6574524159       -6.8765763352  W2        24              0.0000000000
        72        24  TIP3      H2            -43.4918105720      -43.8097924159       -7.1752963352  W2        24              0.0000000000
        73        25  TIP3      OH2           -43.4677205720      -56.4293124159       -5.6208763352  W2        25              0.0000000000
        74        25  TIP3      H1            -44.2038005720      -55.8186024159       -5.6587463352  W2        25              0.0000000000
        75        25  TIP3      H2            -42.7843205720      -56.0144124159       -6.1472363352  W2        25              0.0000000000
        76        26  TIP3      OH2           -50.4645805720      -58.3425824159       -8.1550763352  W2        26              0.0000000000
        77        26  TIP3      H1            -50.5821605720      -59.2909824159       -8.2092463352  W2        26              0.0000000000
        78        26  TIP3      H2            -51.3195705720      -58.0099724159       -7.8819663352  W2        26              0.0000000000
        79        27  TIP3      OH2           -45.5163005720      -42.9344924159      -10.4131063352  W2        27              0.0000000000
        80        27  TIP3      H1            -45.0910705720      -43.6417024159      -10.8981463352  W2        27              0.0000000000
        81        27  TIP3      H2            -45.1993005720      -42.1332224159      -10.8298863352  W2        27              0.0000000000
        82        28  TIP3      OH2           -44.3566505720      -45.0336424159      -11.9044463352  W2        28              0.0000000000
        83        28  TIP3      H1            -44.6141705720      -45.7236324159      -12.5158563352  W2        28              0.0000000000
        84        28  TIP3      H2            -44.2855705720      -45.4765224159      -11.0588563352  W2        28              0.0000000000
        85        29  TIP3      OH2           -42.6706305720      -46.4669724159       -3.4270963352  W2        29              0.0000000000
        86        29  TIP3      H1            -42.5310005720      -47.0587224159       -4.1663963352  W2        29              0.0000000000
        87        29  TIP3      H2            -42.5033505720      -45.5943824159       -3.7832163352  W2        29              0.0000000000
        88        30  TIP3      OH2           -48.1980905720      -49.5050224159      -13.6544963352  W2        30              0.0000000000
        89        30  TIP3      H1            -48.9095405720      -48.9700524159      -14.0064463352  W2        30              0.0000000000
        90        30  TIP3      H2            -47.5071305720      -49.4498124159      -14.3146063352  W2        30              0.0000000000
        91        31  TIP3      OH2           -48.1441705720      -51.0475924159      -16.6159963352  W2        31              0.0000000000
        92        31  TIP3      H1            -47.4431805720      -51.0249024159      -15.9645963352  W2        31              0.0000000000
        93        31  TIP3      H2            -47.8418805720      -51.6756224159      -17.2720663352  W2        31              0.0000000000
        94        32  TIP3      OH2           -40.8287005720      -50.1271724159       -5.3610563352  W2        32              0.0000000000
        95        32  TIP3      H1            -41.4812905720      -49.4326124159       -5.2719663352  W2        32              0.0000000000
        96        32  TIP3      H2            -40.3636705720      -49.9170824159       -6.1708963352  W2        32              0.0000000000
        97        33  TIP3      OH2           -44.7923205720      -49.2956924159      -12.7029063352  W2        33              0.0000000000
        98        33  TIP3      H1            -45.5242205720      -49.0673224159      -12.1298463352  W2        33              0.0000000000
        99        33  TIP3      H2            -44.3451005720      -50.0094224159      -12.2481563352  W2        33              0.0000000000
       100        34  TIP3      OH2           -44.8949705720      -51.1214324159       -3.6352063352  W2        34              0.0000000000
       101        34  TIP3      H1            -44.8150605720      -50.3579924159       -3.0633563352  W2        34              0.0000000000
       102        34  TIP3      H2            -45.4962005720      -50.8421924159       -4.3256963352  W2        34              0.0000000000
       103        35  TIP3      OH2           -53.1469505720      -48.6650724159      -10.8204063352  W2        35              0.0000000000
       104        35  TIP3      H1            -53.4774305720      -49.0357324159      -11.6387063352  W2        35              0.0000000000
       105        35  TIP3      H2            -52.5585405720      -49.3356724159      -10.4735763352  W2        35              0.0000000000
       106        36  TIP3      OH2           -51.7802005720      -45.2370124159       -8.1391863352  W2        36              0.0000000000
       107        36  TIP3      H1            -51.8750705720      -45.8157024159       -8.8957263352  W2        36              0.0000000000
       108        36  TIP3      H2            -51.0508405720      -45.6084424159       -7.6429063352  W2        36              0.0000000000
       109        37  TIP3      OH2           -52.7804005720      -49.8965124159       -7.1869063352  W2        37              0.0000000000
       110        37  TIP3      H1            -52.2151505720      -49.7750924159       -7.9497863352  W2        37              0.0000000000
       111        37  TIP3      H2            -52.4615105720      -49.2590124159       -6.5480563352  W2        37              0.0000000000
       112        38  TIP3      OH2           -46.4711805720      -44.3933224159       -6.4528563352  W2        38              0.0000000000
       113        38  TIP3      H1            -46.7115205720      -43.7310124159       -5.8049363352  W2        38              0.0000000000
       114        38  TIP3      H2            -46.6693605720      -45.2278024159       -6.0278963352  W2        38              0.0000000000
       115        39  TIP3      OH2           -51.9003305720      -45.4972424159       -2.4697163352  W2        39              0.0000000000
       116        39  TIP3      H1            -52.2115805720      -44.7149224159       -2.0143963352  W2        39              0.0000000000
       117        39  TIP3      H2            -52.5503105720      -45.6503324159       -3.1555163352  W2        39              0.0000000000
       118        40  TIP3      OH2           -45.9213705720      -50.1334024159      -15.0177863352  W2        40              0.0000000000
       119        40  TIP3      H1            -45.3418205720      -49.9833724159      -14.2708963352  W2        40              0.0000000000
       120        40  TIP3      H2            -45.5073705720      -49.6626624159      -15.7411463352  W2        40              0.0000000000
       121        41  TIP3      OH2           -54.9803405720      -49.2991324159       -3.2411463352  W2        41              0.0000000000
       122        41  TIP3      H1            -54.9100205720      -48.6484524159       -2.5426463352  W2        41              0.0000000000
       123        41  TIP3      H2            -55.8711205720      -49.1963824159       -3.5760563352  W2        41              0.0000000000
       124        42  TIP3      OH2           -48.1948805720      -43.3965524159      -11.5824763352  W2        42              0.0000000000
       125        42  TIP3      H1            -47.7211205720      -43.1009224159      -10.8050563352  W2        42              0.0000000000
       126        42  TIP3      H2            -48.7579505720      -42.6583924159      -11.8155163352  W2        42              0.0000000000
       127        43  TIP3      OH2           -53.6607405720      -43.4257424159       -1.7063363352  W2        43              0.0000000000
       128        43  TIP3      H1            -53.6532105720      -43.5617724159       -2.6537863352  W2        43              0.0000000000
       129        43  TIP3      H2            -54.5767005720      -43.5429324159       -1.4543363352  W2        43              0.0000000000
       130        44  TIP3      OH2           -42.2225305720      -58.3833624159      -15.2048163352  W2        44              0.0000000000
       131        44  TIP3      H1            -43.1224605720      -58.2444624159      -14.9097563352  W2        44              0.0000000000
       132        44  TIP3      H2            -41.9706905720      -57.5519024159      -15.6066463352  W2        44              0.0000000000
       133        45  TIP3      OH2           -54.1566805720      -49.5956424159      -13.2311263352  W2        45              0.0000000000
       134        45  TIP3      H1            -54.4485505720      -48.8274724159      -13.7219963352  W2        45              0.0000000000
       135        45  TIP3      H2            -54.8311605720      -50.2550224159      -13.3939863352  W2        45              0.0000000000
       136        46  TIP3      OH2           -41.0333905720      -44.0171224159      -16.8284263352  W2        46              0.0000000000
       137        46  TIP3      H1            -40.9600405720      -43.0781024159      -16.6578963352  W2        46              0.0000000000
       138        46  TIP3      H2            -40.1278805720      -44.3222624159      -16.8846963352  W2        46              0.0000000000
       139        47  TIP3      OH2           -58.0636705720      -47.2327224159       -4.4161463352  W2        47              0.0000000000
       140        47  TIP3      H1            -58.5648305720      -47.2607824159       -5.2311763352  W2        47              0.0000000000
       141        47  TIP3      H2            -58.0583005720      -48.1384024159       -4.1064163352  W2        47              0.0000000000
       142        48  TIP3      OH2           -58.3134005720      -44.4523424159       -7.5321263352  W2        48              0.0000000000
       143        48  TIP3      H1            -57.3673405720      -44.5966424159       -7.5511763352  W2        48              0.0000000000
       144        48  TIP3      H2            -58.4257705720      -43.6680624159       -6.9950063352  W2        48              0.0000000000
       145        49  TIP3      OH2           -40.1155505720      -43.7863724159       -1.8497563352  W2        49              0.0000000000
       146        49  TIP3      H1            -40.1648705720      -44.7415624159       -1.8869963352  W2        49              0.0000000000
       147        49  TIP3      H2            -40.9423205720      -43.5188424159       -1.4483763352  W2        49              0.0000000000
       148        50  TIP3      OH2           -49.1371505720      -44.2124524159       -2.9736163352  W2        50              0.0000000000
       149        50  TIP3      H1            -49.0496905720      -43.3859924159       -2.4987063352  W2        50              0.0000000000
       150        50  TIP3      H2            -50.0006405720      -44.5420724159       -2.7246863352  W2        50              0.0000000000
       151        51  TIP3      OH2           -48.7225705720      -40.4400824159      -13.1675563352  W2        51              0.0000000000
       152        51  TIP3      H1            -48.7979705720      -40.5613624159      -14.1140363352  W2        51              0.0000000000
       153        51  TIP3      H2            -48.6897005720      -39.4908124159      -13.0490963352  W2        51              0.0000000000
       154        52  TIP3      OH2           -55.0691905720      -41.6513824159      -11.3866563352  W2        52              0.0000000000
       155        52  TIP3      H1            -54.9171505720      -41.9993424159      -10.5080063352  W2        52              0.0000000000
       156        52  TIP3      H2            -55.9201505720      -42.0076524159      -11.6419363352  W2        52              0.0000000000
       157        53  TIP3      OH2           -45.6209705720      -41.2860624159      -16.1653163352  W2        53              0.0000000000
       158        53  TIP3      H1            -45.2461305720      -42.0304524159      -16.6360563352  W2        53              0.0000000000
       159        53  TIP3      H2            -45.6166005720      -41.5560024159      -15.2469863352  W2        53              0.0000000000
       160        54  TIP3      OH2           -45.9521605720      -41.3603524159      -13.4160963352  W2        54              0.0000000000
       161        54  TIP3      H1            -46.8871805720      -41.2601624159      -13.2373963352  W2        54              0.0000000000
       162        54  TIP3      H2            -45.6719705720      -42.0697524159      -12.8377763352  W2        54              0.0000000000
       163        55  TIP3      OH2           -42.9635705720      -52.2931224159       -1.3695363352  W2        55              0.0000000000
       164        55  TIP3      H1            -43.3708905720      -51.8125624159       -2.0902063352  W2        55              0.0000000000
       165        55  TIP3      H2            -42.9230005720      -53.1985224159       -1.6774563352  W2        55              0.0000000000
       166        56  TIP3      OH2           -55.8146205720      -45.9091824159       -3.3728663352  W2        56              0.0000000000
       167        56  TIP3      H1            -55.5984905720      -46.2706224159       -2.5132863352  W2        56              0.0000000000
       168        56  TIP3      H2            -56.6701505720      -46.2838024159       -3.5825163352  W2        56              0.0000000000
       169        57  TIP3      OH2           -53.1958205720      -57.4391324159       -7.3774463352  W2        57              0.0000000000
       170        57  TIP3      H1            -54.0574505720      -57.5263124159       -7.7851563352  W2        57              0.0000000000
       171        57  TIP3      H2            -53.2182505720      -56.5831224159       -6.9496863352  W2        57              0.0000000000
       172        58  TIP3      OH2           -48.5330405720      -57.7170924159       -4.0027463352  W2        58              0.0000000000
       173        58  TIP3      H1            -48.1127305720      -58.1323824159       -3.2496863352  W2        58              0.0000000000
       174        58  TIP3      H2            -49.4660805720      -57.8957624159       -3.8855463352  W2        58              0.0000000000
       175        59  TIP3      OH2           -45.2065505720      -53.9615724159       -3.1492963352  W2        59              0.0000000000
       176        59  TIP3      H1            -45.7206005720      -54.0873524159       -2.3516963352  W2        59              0.0000000000
       177        59  TIP3      H2            -45.3620805720      -53.0492624159       -3.3936763352  W2        59              0.0000000000
       178        60  TIP3      OH2           -44.4440605720      -49.1005724159      -17.3879963352  W2        60              0.0000000000
       179        60  TIP3      H1            -44.4019805720      -49.3231824159      -18.3179963352  W2        60              0.0000000000
       180        60  TIP3      H2            -43.5948505720      -48.7018624159      -17.1980063352  W2        60              0.0000000000
       181        61  TIP3      OH2           -48.8713105720      -55.2247524159      -16.7176663352  W2        61              0.0000000000
       182        61  TIP3      H1            -49.1248305720      -55.2055924159      -15.7948563352  W2        61              0.0000000000
       183        61  TIP3      H2            -49.1281005720      -56.0962124159      -17.0190463352  W2        61              0.0000000000
       184        62  TIP3      OH2           -53.1048105720      -52.4736824159       -6.2824263352  W2        62              0.0000000000
       185        62  TIP3      H1            -53.7466005720      -52.5139524159       -5.5734163352  W2        62              0.0000000000
       186        62  TIP3      H2            -53.0676105720      -51.5472124159       -6.5201263352  W2        62              0.0000000000
       187        63  TIP3      OH2           -53.1079005720      -52.2526724159      -11.3704263352  W2        63              0.0000000000
       188        63  TIP3      H1            -54.0006105720      -52.5930624159      -11.4290463352  W2        63              0.0000000000
       189        63  TIP3      H2            -52.6572405720      -52.6295824159      -12.1261063352  W2        63              0.0000000000
       190        64  TIP3      OH2           -47.5723505720      -51.8366424159      -12.5533463352  W2        64              0.0000000000
       191        64  TIP3      H1            -47.9813205720      -51.0217824159      -12.8448663352  W2        64              0.0000000000
       192        64  TIP3      H2            -46.8517305720      -51.9766324159      -13.1676363352  W2        64              0.0000000000
       193        65  TIP3      OH2           -48.4701905720      -51.6610024159       -1.0652763352  W2        65              0.0000000000
       194        65  TIP3      H1            -49.0328105720      -52.3658424159       -0.7444963352  W2        65              0.0000000000
       195        65  TIP3      H2            -47.6438505720      -51.7818124159       -0.5975163352  W2        65              0.0000000000
       196        66  TIP3      OH2           -46.5675805720      -52.3906024159       -9.7393763352  W2        66              0.0000000000
       197        66  TIP3      H1            -46.7631305720      -51.7849224159      -10.4543163352  W2        66              0.0000000000
       198        66  TIP3      H2            -46.3863205720      -53.2240824159      -10.1737463352  W2        66              0.0000000000
       199        67  TIP3      OH2           -55.3547605720      -52.1533324159       -4.4152263352  W2        67              0.0000000000
       200        67  TIP3      H1            -55.3928205720      -51.7531724159       -3.5465163352  W2        67              0.0000000000
       201        67  TIP3      H2            -55.8456505720      -52.9700924159       -4.3249363352  W2        67              0.0000000000
       202        68  TIP3      OH2           -51.9890205720      -54.7791024159      -17.6166263352  W2        68              0.0000000000
       203        68  TIP3      H1            -52.4199505720      -55.2240924159      -16.8868863352  W2        68              0.0000000000
       204        68  TIP3      H2            -52.7071505720      -54.4074724159      -18.1288763352  W2        68              0.0000000000
       205        69  TIP3      OH2           -58.7466805720      -55.0371524159      -10.5647563352  W2        69              0.0000000000
       206        69  TIP3      H1            -58.1159105720      -55.0659424159       -9.8453663352  W2        69              0.0000000000
       207        69  TIP3      H2            -58.2972505720      -55.4622824159      -11.2951663352  W2        69              0.0000000000
       208        70  TIP3      OH2           -57.4724705720      -54.2909524159      -15.1407163352  W2        70              0.0000000000
       209        70  TIP3      H1            -56.9983005720      -53.6999624159      -15.7256263352  W2        70              0.0000000000
       210        70  TIP3      H2            -58.1898305720      -53.7606624159      -14.7937063352  W2        70              0.0000000000
       211        71  TIP3      OH2           -47.3036605720      -50.7524724159       -5.0681363352  W2        71              0.0000000000
       212        71  TIP3      H1            -46.9801805720      -51.3835024159       -5.7110863352  W2        71              0.0000000000
       213        71  TIP3      H2            -47.7437305720      -51.2872524159       -4.4073963352  W2        71              0.0000000000
       214        72  TIP3      OH2           -50.5263705720      -54.8249224159      -10.2840163352  W2        72              0.0000000000
       215        72  TIP3      H1            -51.4372605720      -54.7682424159       -9.9954163352  W2        72              0.0000000000
       216        72  TIP3      H2            -50.0210805720      -54.8853724159       -9.4732963352  W2        72              0.0000000000
       217        73  TIP3      OH2           -55.6980305720      -53.1962924159      -11.4572563352  W2        73              0.0000000000
       218        73  TIP3      H1            -56.5872305720      -53.0967424159      -11.7972963352  W2        73              0.0000000000
       219        73  TIP3      H2            -55.4015405720      -54.0379924159      -11.8034663352  W2        73              0.0000000000
       220        74  TIP3      OH2           -52.0448505720      -53.1960324159      -13.8007963352  W2        74              0.0000000000
       221        74  TIP3      H1            -51.1133005720      -53.0670324159      -13.6224863352  W2        74              0.0000000000
       222        74  TIP3      H2            -52.2598205720      -52.5266024159      -14.4503263352  W2        74              0.0000000000
       223        75  TIP3      OH2           -46.1211805720      -55.5902924159       -7.0198363352  W2        75              0.0000000000
       224        75  TIP3      H1            -46.7980205720      -55.4589824159       -6.3558663352  W2        75              0.0000000000
       225        75  TIP3      H2            -46.6066905720      -55.7453424159       -7.8300663352  W2        75              0.0000000000
       226        76  TIP3      OH2           -53.3708305720      -52.0018124159      -16.2341863352  W2        76              0.0000000000
       227        76  TIP3      H1            -53.9133205720      -52.3814324159      -16.9254263352  W2        76              0.0000000000
       228        76  TIP3      H2            -52.5373405720      -51.8073424159      -16.6627763352  W2        76              0.0000000000
       229        77  TIP3      OH2           -42.8336705720      -39.9187524159       -0.7430763352  W2        77              0.0000000000
       230        77  TIP3      H1            -42.6338005720      -39.4945624159       -1.5775463352  W2        77              0.0000000000
       231        77  TIP3      H2            -42.1783005720      -39.5749324159       -0.1360363352  W2        77              0.0000000000
       232        78  TIP3      OH2           -55.2356905720      -47.4446224159       -1.1350263352  W2        78              0.0000000000
       233        78  TIP3      H1            -54.5034505720      -47.1900324159       -0.5735763352  W2        78              0.0000000000
       234        78  TIP3      H2            -56.0158205720      -47.2400824159       -0.6194863352  W2        78              0.0000000000
       235        79  TIP3      OH2           -49.2064005720      -52.0376224159       -8.3970563352  W2        79              0.0000000000
       236        79  TIP3      H1            -48.6420605720      -52.5839624159       -8.9440963352  W2        79              0.0000000000
       237        79  TIP3      H2            -49.3540605720      -52.5594324159       -7.6082963352  W2        79              0.0000000000
       238        80  TIP3      OH2           -54.2044305720      -55.9010124159      -11.9785763352  W2        80              0.0000000000
       239        80  TIP3      H1            -54.5214805720      -56.8034824159      -12.0140363352  W2        80              0.0000000000
       240        80  TIP3      H2            -53.4230205720      -55.8992724159      -12.5314163352  W2        80              0.0000000000
       241        81  TIP3      OH2           -50.5798105720      -53.6490124159       -5.9830163352  W2        81              0.0000000000
       242        81  TIP3      H1            -51.4152805720      -53.1950624159       -5.8727763352  W2        81              0.0000000000
       243        81  TIP3      H2            -50.0557505720      -53.3731624159       -5.2310263352  W2        81              0.0000000000
       244        82  TIP3      OH2           -50.0355505720      -47.4362424159      -14.2983763352  W2        82              0.0000000000
       245        82  TIP3      H1            -50.7804505720      -47.9437124159      -14.6205863352  W2        82              0.0000000000
       246        82  TIP3      H2            -50.1698305720      -47.3874424159      -13.3518963352  W2        82              0.0000000000
       247        83  TIP3      OH2           -42.8856605720      -48.3034224159       -5.5116163352  W2        83              0.0000000000
       248        83  TIP3      H1            -42.2437805720      -47.8467924159       -6.0553963352  W2        83              0.0000000000
       249        83  TIP3      H2            -43.7159705720      -48.1901824159       -5.9742063352  W2        83              0.0000000000
       250        84  TIP3      OH2           -46.1378705720      -54.6222524159      -16.0991163352  W2        84              0.0000000000
       251        84  TIP3      H1            -47.0764505720      -54.5106924159      -16.2502363352  W2        84              0.0000000000
       252        84  TIP3      H2            -45.8406605720      -53.7655624159      -15.7925463352  W2        84              0.0000000000
       253        85  TIP3      OH2           -48.5163405720      -47.2519124159       -3.0614663352  W2        85              0.0000000000
       254        85  TIP3      H1            -48.8617305720      -47.6336724159       -2.2545063352  W2        85              0.0000000000
       255        85  TIP3      H2            -48.7163305720      -46.3185524159       -2.9901763352  W2        85              0.0000000000
       256        86  TIP3      OH2           -45.4195205720      -52.7549824159      -14.4383763352  W2        86              0.0000000000
       257        86  TIP3      H1            -44.5276205720      -52.8924824159      -14.1192563352  W2        86              0.0000000000
       258        86  TIP3      H2            -45.3631605720      -51.9643724159      -14.9750263352  W2        86              0.0000000000
       259        87  TIP3      OH2           -54.9107205720      -48.1412424159       -8.5285863352  W2        87              0.0000000000
       260        87  TIP3      H1            -54.1660005720      -48.1436724159       -9.1299363352  W2        87              0.0000000000
       261        87  TIP3      H2            -54.8330605720      -48.9648624159       -8.0470763352  W2        87              0.0000000000
       262        88  TIP3      OH2           -47.9101405720      -45.9778124159      -15.2729163352  W2        88              0.0000000000
       263        88  TIP3      H1            -48.2053005720      -45.1510224159      -14.8914363352  W2        88              0.0000000000
       264        88  TIP3      H2            -48.6131405720      -46.5971224159      -15.0767763352  W2        88              0.0000000000
       265        89  TIP3      OH2           -57.9027505720      -49.6805524159       -3.2137363352  W2        89              0.0000000000
       266        89  TIP3      H1            -57.6798905720      -50.0985924159       -2.3819863352  W2        89              0.0000000000
       267        89  TIP3      H2            -58.5047405720      -50.2930524159       -3.6364563352  W2        89              0.0000000000
       268        90  TIP3      OH2           -50.8862605720      -50.1635624159       -1.0007663352  W2        90              0.0000000000
       269        90  TIP3      H1            -51.1821805720      -50.3292624159       -1.8958563352  W2        90              0.0000000000
       270        90  TIP3      H2            -49.9547405720      -50.3835324159       -1.0113763352  W2        90              0.0000000000
       271        91  TIP3      OH2           -46.2659805720      -44.7903624159       -3.1109663352  W2        91              0.0000000000
       272        91  TIP3      H1            -47.1665505720      -44.6071024159       -3.3785763352  W2        91              0.0000000000
       273        91  TIP3      H2            -46.2318705720      -44.5314324159       -2.1900863352  W2        91              0.0000000000
       274        92  TIP3      OH2           -40.5346505720      -52.5455724159      -14.7437063352  W2        92              0.0000000000
       275        92  TIP3      H1            -41.0890205720      -52.9417724159      -15.4159563352  W2        92              0.0000000000
       276        92  TIP3      H2            -40.4342905720      -51.6350524159      -15.0213763352  W2        92              0.0000000000
       277        93  TIP3      OH2           -40.5714505720      -46.7454024159       -1.9065563352  W2        93              0.0000000000
       278        93  TIP3      H1            -41.4226005720      -46.5070224159       -2.2739163352  W2        93              0.0000000000
       279        93  TIP3      H2            -39.9811105720      -46.7620824159       -2.6598463352  W2        93              0.0000000000
       280        94  TIP3      OH2           -42.2394805720      -43.7595324159      -14.2784963352  W2        94              0.0000000000
       281        94  TIP3      H1            -42.6123705720      -44.5851524159      -13.9694363352  W2        94              0.0000000000
       282        94  TIP3      H2            -41.9621305720      -43.9425924159      -15.1761563352  W2        94              0.0000000000
       283        95  TIP3      OH2           -45.0790905720      -48.9515824159       -7.2573063352  W2        95              0.0000000000
       284        95  TIP3      H1            -46.0074005720      -49.1833924159       -7.2843763352  W2        95              0.0000000000
       285        95  TIP3      H2            -44.6279805720      -49.7286024159       -7.5874263352  W2        95              0.0000000000
       286        96  TIP3      OH2           -52.5357805720      -44.6234224159      -11.1244363352  W2        96              0.0000000000
       287        96  TIP3      H1            -52.0085605720      -43.8499824159      -11.3245563352  W2        96              0.0000000000
       288        96  TIP3      H2            -53.4159305720      -44.3985024159      -11.4260363352  W2        96              0.0000000000
       289        97  TIP3      OH2           -56.7810105720      -49.7610124159      -16.5371963352  W2        97              0.0000000000
       290        97  TIP3      H1            -56.1650205720      -49.1342924159      -16.1577163352  W2        97              0.0000000000
       291        97  TIP3      H2            -57.6427505720      -49.4450324159      -16.2655463352  W2        97              0.0000000000
       292        98  TIP3      OH2           -51.1085505720      -46.9604324159      -11.5480063352  W2        98              0.0000000000
       293        98  TIP3      H1            -51.3495505720      -46.0349924159      -11.5064763352  W2        98              0.0000000000
       294        98  TIP3      H2            -51.8491905720      -47.4193024159      -11.1516163352  W2        98              0.0000000000
       295        99  TIP3      OH2           -50.5938905720      -42.8110724159       -5.2328963352  W2        99              0.0000000000
       296        99  TIP3      H1            -50.2314205720      -41.9565124159       -5.4664563352  W2        99              0.0000000000
       297        99  TIP3      H2            -50.0623705720      -43.1029124159       -4.4922663352  W2        99              0.0000000000
       298       100  TIP3      OH2           -52.4254705720      -41.9386724159      -12.0027863352  W2        100             0.0000000000
       299       100  TIP3      H1            -53.3754205720      -41.8329324159      -11.9514563352  W2        100             0.0000000000
       300       100  TIP3      H2            -52.0736605720      -41.1179324159      -11.6580363352  W2        100             0.0000000000
       301       101  TIP3      OH2           -47.0498105720      -46.7120024159       -5.5323363352  W2        101             0.0000000000
       302       101  TIP3      H1            -47.4756805720      -46.9398324159       -4.7059363352  W2        101             0.0000000000
       303       101  TIP3      H2            -46.4692305720      -47.4508224159       -5.7148063352  W2        101             0.0000000000
       304       102  TIP3      OH2           -44.8469205720      -45.7829524159      -16.4584363352  W2        102             0.0000000000
       305       102  TIP3      H1            -44.4936105720      -46.1629724159      -15.6540863352  W2        102             0.0000000000
       306       102  TIP3      H2            -45.7955705720      -45.8764724159      -16.3715063352  W2        102             0.0000000000
       307       103  TIP3      OH2           -44.3913905720      -42.1600524159       -3.0628563352  W2        103             0.0000000000
       308       103  TIP3      H1            -44.9930705720      -42.7157624159       -3.5582263352  W2        103             0.0000000000
       309       103  TIP3      H2            -44.1100205720      -41.4930724159       -3.6891163352  W2        103             0.0000000000
       310       104  TIP3      OH2           -40.3434805720      -41.3037024159      -16.2574163352  W2        104             0.0000000000
       311       104  TIP3      H1            -39.5996905720      -40.7176524159      -16.3972563352  W2        104             0.0000000000
       312       104  TIP3      H2            -41.0376705720      -40.7351224159      -15.9241763352  W2        104             0.0000000000
       313       105  TIP3      OH2           -56.2688005720      -54.9272824159       -3.6555963352  W2        105             0.0000000000
       314       105  TIP3      H1            -57.1615705720      -54.5887424159       -3.7231963352  W2        105             0.0000000000
       315       105  TIP3      H2            -56.3675205720      -55.7826724159       -3.2375163352  W2        105             0.0000000000
       316       106  TIP3      OH2           -43.9809905720      -47.1107524159      -14.2316463352  W2        106             0.0000000000
       317       106  TIP3      H1            -44.2582305720      -47.8388224159      -13.6755363352  W2        106             0.0000000000
       318       106  TIP3      H2            -43.0536905720      -46.9915524159      -14.0263863352  W2        106             0.0000000000
       319       107  TIP3      OH2           -56.6176005720      -43.1228424159       -5.2206563352  W2        107             0.0000000000
       320       107  TIP3      H1            -56.4005705720      -44.0546024159       -5.2516863352  W2        107             0.0000000000
       321       107  TIP3      H2            -56.3712505720      -42.8483424159       -4.3373763352  W2        107             0.0000000000
       322       108  TIP3      OH2           -50.7561405720      -44.6713424159      -18.0114363352  W2        108             0.0000000000
       323       108  TIP3      H1            -50.5171605720      -45.4195324159      -18.5585463352  W2        108             0.0000000000
       324       108  TIP3      H2            -51.0250105720      -45.0591724159      -17.1786563352  W2        108             0.0000000000
       325       109  TIP3      OH2           -51.8190805720      -45.1009624159      -15.5551763352  W2        109             0.0000000000
       326       109  TIP3      H1            -51.6722805720      -45.6209824159      -14.7650863352  W2        109             0.0000000000
       327       109  TIP3      H2            -51.8219105720      -44.1942024159      -15.2485863352  W2        109             0.0000000000
       328       110  TIP3      OH2           -55.3659705720      -47.8486324159      -15.0446363352  W2        110             0.0000000000
       329       110  TIP3      H1            -56.0520405720      -47.4963824159      -14.4776663352  W2        110             0.0000000000
       330       110  TIP3      H2            -54.8431805720      -47.0856724159      -15.2912063352  W2        110             0.0000000000
       331       111  TIP3      OH2           -47.5344605720      -55.1862524159       -4.7657363352  W2        111             0.0000000000
       332       111  TIP3      H1            -46.8356705720      -55.1123824159       -4.1157663352  W2        111             0.0000000000
       333       111  TIP3      H2            -47.9153205720      -56.0507524159       -4.6114463352  W2        111             0.0000000000
       334       112  TIP3      OH2           -46.7499705720      -55.5340824159      -13.6685063352  W2        112             0.0000000000
       335       112  TIP3      H1            -46.5301405720      -55.0625424159      -14.4719663352  W2        112             0.0000000000
       336       112  TIP3      H2            -46.1915705720      -55.1398224159      -12.9984463352  W2        112             0.0000000000
       337       113  TIP3      OH2           -49.0813605720      -43.4036024159      -14.8057563352  W2        113             0.0000000000
       338       113  TIP3      H1            -49.8977505720      -42.9066324159      -14.7533263352  W2        113             0.0000000000
       339       113  TIP3      H2            -48.5517305720      -42.9282524159      -15.4458763352  W2        113             0.0000000000
       340       114  TIP3      OH2           -49.5499805720      -53.8062024159      -12.8336663352  W2        114             0.0000000000
       341       114  TIP3      H1            -48.7377205720      -53.3018824159      -12.7874963352  W2        114             0.0000000000
       342       114  TIP3      H2            -49.7946805720      -53.9512324159      -11.9197063352  W2        114             0.0000000000
       343       115  TIP3      OH2           -49.0143405720      -52.8199324159       -3.6490063352  W2        115             0.0000000000
       344       115  TIP3      H1            -48.8953105720      -52.2463924159       -2.8919663352  W2        115             0.0000000000
       345       115  TIP3      H2            -48.3588805720      -53.5079924159       -3.5342263352  W2        115             0.0000000000
       346       116  TIP3      OH2           -48.6663105720      -56.7249024159      -11.8955563352  W2        116             0.0000000000
       347       116  TIP3      H1            -49.0129605720      -56.1078424159      -11.2511263352  W2        116             0.0000000000
       348       116  TIP3      H2            -48.0076205720      -56.2243324159      -12.3770063352  W2        116             0.0000000000
       349       117  TIP3      OH2           -51.7430505720      -42.3598824159      -14.8240663352  W2        117             0.0000000000
       350       117  TIP3      H1            -51.5821805720      -41.5601324159      -15.3248063352  W2        117             0.0000000000
       351       117  TIP3      H2            -51.9402705720      -42.0532824159      -13.9390063352  W2        117             0.0000000000
       352       118  TIP3      OH2           -53.0086105720      -55.6619624159      -15.2083063352  W2        118             0.0000000000
       353       118  TIP3      H1            -53.0921305720      -54.7736524159      -14.8616663352  W2        118             0.0000000000
       354       118  TIP3      H2            -52.1185805720      -55.9272924159      -14.9766263352  W2        118             0.0000000000
       355       119  TIP3      OH2           -42.8097605720      -54.9129024159       -2.8140363352  W2        119             0.0000000000
       356       119  TIP3      H1            -43.7261805720      -54.6507324159       -2.9016663352  W2        119             0.0000000000
       357       119  TIP3      H2            -42.4742605720      -54.9160024159       -3.7105063352  W2        119             0.0000000000
       358       120  TIP3      OH2           -44.2076605720      -51.1628024159       -8.7183063352  W2        120             0.0000000000
       359       120  TIP3      H1            -45.0052205720      -51.5777824159       -9.0468063352  W2        120             0.0000000000
       360       120  TIP3      H2            -43.7625505720      -51.8534324159       -8.2272563352  W2        120             0.0000000000
       361       121  TIP3      OH2           -54.7500805720      -45.2347424159      -16.1478563352  W2        121             0.0000000000
       362       121  TIP3      H1            -54.1579305720      -44.5352624159      -15.8716163352  W2        121             0.0000000000
       363       121  TIP3      H2            -54.2907805720      -45.6677924159      -16.8673963352  W2        121             0.0000000000
       364       122  TIP3      OH2           -56.4341605720      -52.5704424159      -17.0319163352  W2        122             0.0000000000
       365       122  TIP3      H1            -56.4789005720      -51.6311324159      -16.8532163352  W2        122             0.0000000000
       366       122  TIP3      H2            -57.3218405720      -52.8059524159      -17.3017063352  W2        122             0.0000000000
       367       123  TIP3      OH2           -43.1212005720      -41.9065524159       -7.0959563352  W2        123             0.0000000000
       368       123  TIP3      H1            -43.2767705720      -41.2281124159       -7.7530263352  W2        123             0.0000000000
       369       123  TIP3      H2            -42.1885605720      -41.8346224159       -6.8928963352  W2        123             0.0000000000
       370       124  TIP3      OH2           -55.6259605720      -57.7887824159       -8.3588163352  W2        124             0.0000000000
       371       124  TIP3      H1            -55.8549805720      -57.7295324159       -9.2863163352  W2        124             0.0000000000
       372       124  TIP3      H2            -56.0686205720      -58.5802324159       -8.0524063352  W2        124             0.0000000000
       373       125  TIP3      OH2           -56.6956305720      -43.8480724159      -12.1982363352  W2        125             0.0000000000
       374       125  TIP3      H1            -57.5277705720      -43.3758024159      -12.1710963352  W2        125             0.0000000000
       375       125  TIP3      H2            -56.1498005720      -43.3383124159      -12.7969263352  W2        125             0.0000000000
       376       126  TIP3      OH2           -57.4072605720      -41.2357024159       -0.8684363352  W2        126             0.0000000000
       377       126  TIP3      H1            -56.8670405720      -41.4523024159       -0.1085163352  W2        126             0.0000000000
       378       126  TIP3      H2            -57.8884605720      -42.0411024159       -1.0581863352  W2        126             0.0000000000
       379       127  TIP3      OH2           -52.8099205720      -42.3162624159        0.7519836648  W2        127             0.0000000000
       380       127  TIP3      H1            -52.0422005720      -42.7751824159        1.0929036648  W2        127             0.0000000000
       381       127  TIP3      H2            -52.8313005720      -42.5422824159       -0.1778963352  W2        127             0.0000000000
       382       128  TIP3      OH2           -48.7179605720      -42.8082024159      -17.8728363352  W2        128             0.0000000000
       383       128  TIP3      H1            -49.3618605720      -43.4393424159      -17.5514663352  W2        128             0.0000000000
       384       128  TIP3      H2            -47.9561305720      -43.3394024159      -18.1044863352  W2        128             0.0000000000
       385       129  TIP3      OH2           -46.2330505720      -43.9361524159       -0.5188663352  W2        129             0.0000000000
       386       129  TIP3      H1            -46.5841005720      -44.7928524159       -0.2758263352  W2        129             0.0000000000
       387       129  TIP3      H2            -45.5067305720      -43.7934824159        0.0880336648  W2        129             0.0000000000
       388       130  TIP3      OH2           -44.1136705720      -42.9912124159      -17.6390363352  W2        130             0.0000000000
       389       130  TIP3      H1            -43.8306305720      -43.7856924159      -17.1863463352  W2        130             0.0000000000
       390       130  TIP3      H2            -43.3738805720      -42.7581124159      -18.1999263352  W2        130             0.0000000000
       391       131  TIP3      OH2           -57.5003105720      -47.4252924159        0.0859936648  W2        131             0.0000000000
       392       131  TIP3      H1            -57.3562605720      -48.3272224159       -0.2003363352  W2        131             0.0000000000
       393       131  TIP3      H2            -58.2725705720      -47.1390824159       -0.4017763352  W2        131             0.0000000000
       394       132  TIP3      OH2           -53.1589405720      -47.0817224159      -17.7815463352  W2        132             0.0000000000
       395       132  TIP3      H1            -53.0945305720      -47.8757624159      -17.2509063352  W2        132             0.0000000000
       396       132  TIP3      H2            -52.5060205720      -47.2004424159      -18.4713463352  W2        132             0.0000000000
       397       133  TIP3      OH2           -50.8447005720      -47.4554824159       -0.4813663352  W2        133             0.0000000000
       398       133  TIP3      H1            -51.1733205720      -47.1846724159       -1.3386263352  W2        133             0.0000000000
       399       133  TIP3      H2            -50.6928805720      -48.3965024159       -0.5688663352  W2        133             0.0000000000
       400       134  TIP3      OH2           -47.8066005720      -46.0345524159      -18.0457463352  W2        134             0.0000000000
       401       134  TIP3      H1            -48.0751905720      -45.8543424159      -17.1448563352  W2        134             0.0000000000
       402       134  TIP3      H2            -48.0130405720      -46.9599324159      -18.1771663352  W2        134             0.0000000000
       403       135  TIP3      OH2           -45.1101805720      -47.5397524159       -3.0981363352  W2        135             0.0000000000
       404       135  TIP3      H1            -44.3647005720      -46.9513824159       -3.2177363352  W2        135             0.0000000000
       405       135  TIP3      H2            -45.8675005720      -46.9577824159       -3.0348263352  W2        135             0.0000000000
       406       136  TIP3      OH2           -56.6676605720      -50.2249624159       -0.4940763352  W2        136             0.0000000000
       407       136  TIP3      H1            -56.2595405720      -51.0823024159       -0.6150163352  W2        136             0.0000000000
       408       136  TIP3      H2            -56.9279005720      -50.2108324159        0.4269536648  W2        136             0.0000000000
       409       137  TIP3      OH2           -52.0095605720      -49.1091024159      -15.4757463352  W2        137             0.0000000000
       410       137  TIP3      H1            -52.4693605720      -49.5932724159      -14.7898963352  W2        137             0.0000000000
       411       137  TIP3      H2            -51.7546905720      -49.7775624159      -16.1116963352  W2        137             0.0000000000
       412       138  TIP3      OH2           -52.7206305720      -51.2163924159       -3.1197863352  W2        138             0.0000000000
       413       138  TIP3      H1            -53.3390205720      -50.5417324159       -2.8393163352  W2        138             0.0000000000
       414       138  TIP3      H2            -52.3765105720      -50.8950024159       -3.9531663352  W2        138             0.0000000000
       415       139  TIP3      OH2           -50.9385205720      -50.8659224159      -17.2134263352  W2        139             0.0000000000
       416       139  TIP3      H1            -51.1190205720      -51.0208024159      -18.1405963352  W2        139             0.0000000000
       417       139  TIP3      H2            -49.9884705720      -50.7580524159      -17.1686363352  W2        139             0.0000000000
       418       140  TIP3      OH2           -47.7008105720      -48.7448624159        0.1576936648  W2        140             0.0000000000
       419       140  TIP3      H1            -46.7476905720      -48.6609524159        0.1302936648  W2        140             0.0000000000
       420       140  TIP3      H2            -47.8613505720      -49.4566824159        0.7771836648  W2        140             0.0000000000
       421       141  TIP3      OH2           -41.5486905720      -48.5115024159      -17.7676163352  W2        141             0.0000000000
       422       141  TIP3      H1            -41.8222105720      -48.9359524159      -18.5807863352  W2        141             0.0000000000
       423       141  TIP3      H2            -41.5092805720      -47.5800524159      -17.9845763352  W2        141             0.0000000000
       424       142  TIP3      OH2           -52.3812605720      -53.8613124159       -2.0374763352  W2        142             0.0000000000
       425       142  TIP3      H1            -52.2311705720      -54.5901824159       -2.6395063352  W2        142             0.0000000000
       426       142  TIP3      H2            -52.3790205720      -53.0841424159       -2.5962563352  W2        142             0.0000000000
       427       143  TIP3      OH2           -51.9686905720      -55.4917324159       -4.5447363352  W2        143             0.0000000000
       428       143  TIP3      H1            -51.4329405720      -55.0400624159       -5.1968063352  W2        143             0.0000000000
       429       143  TIP3      H2            -52.8207305720      -55.5997524159       -4.9673263352  W2        143             0.0000000000
       430       144  TIP3      OH2           -50.3868505720      -50.0521124159       -4.3052163352  W2        144             0.0000000000
       431       144  TIP3      H1            -49.6363705720      -50.2083624159       -4.8784363352  W2        144             0.0000000000
       432       144  TIP3      H2            -50.7260205720      -49.2004524159       -4.5806663352  W2        144             0.0000000000
       433       145  TIP3      OH2           -45.9712305720      -52.2369324159        0.7233136648  W2        145             0.0000000000
       434       145  TIP3      H1            -45.7791005720      -53.1679924159        0.6117636648  W2        145             0.0000000000
       435       145  TIP3      H2            -45.1136005720      -51.8119824159        0.7128536648  W2        145             0.0000000000
       436       146  TIP3      OH2           -44.6545105720      -49.4484124159       -1.1994163352  W2        146             0.0000000000
       437       146  TIP3      H1            -44.9360105720      -48.7389524159       -1.7770363352  W2        146             0.0000000000
       438       146  TIP3      H2            -43.7120805720      -49.5211124159       -1.3502963352  W2        146             0.0000000000
       439       147  TIP3      OH2           -53.9026305720      -52.6629624159       -0.1259163352  W2        147             0.0000000000
       440       147  TIP3      H1            -54.6697305720      -53.1954824159       -0.3361563352  W2        147             0.0000000000
       441       147  TIP3      H2            -53.2237305720      -52.9729224159       -0.7252863352  W2        147             0.0000000000
       442       148  TIP3      OH2           -51.1631405720      -58.0351624159       -4.1133763352  W2        148             0.0000000000
       443       148  TIP3      H1            -51.2611805720      -57.0888424159       -4.2187563352  W2        148             0.0000000000
       444       148  TIP3      H2            -51.9055205720      -58.4077824159       -4.5890263352  W2        148             0.0000000000
       445       149  TIP3      OH2           -49.8990905720      -53.7136224159       -0.5495363352  W2        149             0.0000000000
       446       149  TIP3      H1            -50.1345505720      -53.9329524159        0.3519536648  W2        149             0.0000000000
       447       149  TIP3      H2            -50.6824005720      -53.9205024159       -1.0592863352  W2        149             0.0000000000
       448       150  TIP3      OH2           -47.1834305720      -54.5862724159       -1.4741863352  W2        150             0.0000000000
       449       150  TIP3      H1            -48.1308905720      -54.5543024159       -1.3418563352  W2        150             0.0000000000
       450       150  TIP3      H2            -46.8707605720      -55.2115624159       -0.8203663352  W2        150             0.0000000000
       451       151  TIP3      OH2           -45.5492805720      -55.9521624159        0.5310036648  W2        151             0.0000000000
       452       151  TIP3      H1            -45.6461005720      -56.9044324159        0.5251936648  W2        151             0.0000000000
       453       151  TIP3      H2            -45.8709705720      -55.6834824159        1.3915536648  W2        151             0.0000000000
       454       152  TIP3      OH2           -55.7223505720      -54.7425824159       -0.4214463352  W2        152             0.0000000000
       455       152  TIP3      H1            -55.5106105720      -55.4489724159       -1.0316963352  W2        152             0.0000000000
       456       152  TIP3      H2            -55.8336005720      -55.1799824159        0.4226736648  W2        152             0.0000000000
       457       153  TIP3      OH2           -50.9413305720      -58.7414224159       -1.4420963352  W2        153             0.0000000000
       458       153  TIP3      H1            -50.2294905720      -59.3812024159       -1.4561863352  W2        153             0.0000000000
       459       153  TIP3      H2            -51.0422905720      -58.4745924159       -2.3557863352  W2        153             0.0000000000
       460       154  TIP3      OH2           -50.5875805720      -57.0585824159        0.6115336648  W2        154             0.0000000000
       461       154  TIP3      H1            -50.7193605720      -57.5342024159       -0.2086163352  W2        154             0.0000000000
       462       154  TIP3      H2            -51.1868405720      -56.3142224159        0.5562436648  W2        154             0.0000000000
       463       155  TIP3      OH2           -51.0413505720      -40.1755524159      -16.2120663352  W2        155             0.0000000000
       464       155  TIP3      H1            -50.1082805720      -40.0176824159      -16.0682263352  W2        155             0.0000000000
       465       155  TIP3      H2            -51.3054705720      -39.5002524159      -16.8369163352  W2        155             0.0000000000
       466       156  TIP3      OH2           -57.4728605720      -45.5391724159      -16.7292563352  W2        156             0.0000000000
       467       156  TIP3      H1            -56.5589405720      -45.4602824159      -16.4558663352  W2        156             0.0000000000
       468       156  TIP3      H2            -57.4655505720      -46.2262124159      -17.3956963352  W2        156             0.0000000000
       469       157  TIP3      OH2           -58.8238005720      -40.1463224159      -11.6518663352  W2        157             0.0000000000
       470       157  TIP3      H1            -59.4710905720      -40.6081524159      -12.1847463352  W2        157             0.0000000000
       471       157  TIP3      H2            -58.4693405720      -40.8179924159      -11.0692463352  W2        157             0.0000000000
       472       158  TIP3      OH2           -57.9538805720      -42.0656224159       -9.8472463352  W2        158             0.0000000000
       473       158  TIP3      H1            -58.2882005720      -42.9458924159       -9.6752263352  W2        158             0.0000000000
       474       158  TIP3      H2            -57.7316405720      -41.7201224159       -8.9826863352  W2        158             0.0000000000
       475       159  TIP3      OH2           -40.4054005720      -41.2559824159       -6.8667663352  W2        159             0.0000000000
       476       159  TIP3      H1            -40.4267305720      -41.0711424159       -5.9278263352  W2        159             0.0000000000
       477       159  TIP3      H2            -39.7147805720      -40.6875824159       -7.2076263352  W2        159             0.0000000000
       478       160  TIP3      OH2           -40.8421105720      -41.6888724159       -3.9448563352  W2        160             0.0000000000
       479       160  TIP3      H1            -41.3292405720      -42.4244624159       -4.3161163352  W2        160             0.0000000000
       480       160  TIP3      H2            -40.2928405720      -42.0824824159       -3.2669163352  W2        160             0.0000000000
       481       161  TIP3      OH2           -42.3913805720      -45.8990624159        0.6931736648  W2        161             0.0000000000
       482       161  TIP3      H1            -43.2572705720      -46.0040924159        1.0874036648  W2        161             0.0000000000
       483       161  TIP3      H2            -42.0147905720      -45.1407324159        1.1396436648  W2        161             0.0000000000
       484       162  TIP3      OH2           -41.0904105720      -47.6426924159      -13.7925763352  W2        162             0.0000000000
       485       162  TIP3      H1            -40.2402705720      -47.2216024159      -13.6654163352  W2        162             0.0000000000
       486       162  TIP3      H2            -41.0849005720      -48.3826824159      -13.1854363352  W2        162             0.0000000000
       487       163  TIP3      OH2           -40.6958505720      -49.5889524159      -11.9690063352  W2        163             0.0000000000
       488       163  TIP3      H1            -41.4223905720      -50.0686924159      -11.5712463352  W2        163             0.0000000000
       489       163  TIP3      H2            -40.1145205720      -49.3834824159      -11.2368463352  W2        163             0.0000000000
       490       164  TIP3      OH2           -40.9367305720      -46.8042024159       -7.0212463352  W2        164             0.0000000000
       491       164  TIP3      H1            -40.1033105720      -47.1822024159       -7.3018863352  W2        164             0.0000000000
       492       164  TIP3      H2            -40.8247005720      -45.8610824159       -7.1403363352  W2        164             0.0000000000
       493       165  TIP3      OH2           -42.4505005720      -43.9264524159       -4.7144063352  W2        165             0.0000000000
       494       165  TIP3      H1            -43.0979705720      -43.6013024159       -4.0888863352  W2        165             0.0000000000
       495       165  TIP3      H2            -42.9681005720      -44.3666824159       -5.3885763352  W2        165             0.0000000000
       496       166  TIP3      OH2           -40.4275405720      -49.6881024159      -15.5778763352  W2        166             0.0000000000
       497       166  TIP3      H1            -40.9494305720      -49.3316924159      -16.2967863352  W2        166             0.0000000000
       498       166  TIP3      H2            -40.4606205720      -49.0133224159      -14.8997863352  W2        166             0.0000000000
       499       167  TIP3      OH2           -42.0786405720      -52.4485424159      -17.0271663352  W2        167             0.0000000000
       500       167  TIP3      H1            -41.9822005720      -51.7818424159      -17.7071963352  W2        167             0.0000000000
       501       167  TIP3      H2            -42.2186805720      -53.2639124159      -17.5086163352  W2        167             0.0000000000
       502       168  TIP3      OH2           -42.9091705720      -51.0683024159      -11.4061363352  W2        168             0.0000000000
       503       168  TIP3      H1            -43.0592905720      -52.0134424159      -11.4263563352  W2        168             0.0000000000
       504       168  TIP3      H2            -43.2627205720      -50.7871624159      -10.5622263352  W2        168             0.0000000000
       505       169  TIP3      OH2           -57.8739305720      -48.9900824159       -7.3957563352  W2        169             0.0000000000
       506       169  TIP3      H1            -57.6896405720      -49.0719124159       -8.3314663352  W2        169             0.0000000000
       507       169  TIP3      H2            -57.0246405720      -49.1143824159       -6.9721163352  W2        169             0.0000000000
       508       170  TIP3      OH2           -42.0528805720      -49.0979724159       -1.7673063352  W2        170             0.0000000000
       509       170  TIP3      H1            -41.4701505720      -49.8327424159       -1.5755863352  W2        170             0.0000000000
       510       170  TIP3      H2            -41.4889505720      -48.3259424159       -1.7207263352  W2        170             0.0000000000
       511       171  TIP3      OH2           -40.5561705720      -51.1953924159       -1.0827663352  W2        171             0.0000000000
       512       171  TIP3      H1            -41.4195005720      -51.5741824159       -1.2482963352  W2        171             0.0000000000
       513       171  TIP3      H2            -39.9518005720      -51.9339124159       -1.1571863352  W2        171             0.0000000000
       514       172  TIP3      OH2           -42.8312605720      -55.0405624159      -17.9096163352  W2        172             0.0000000000
       515       172  TIP3      H1            -42.2206805720      -55.4118824159      -17.2727963352  W2        172             0.0000000000
       516       172  TIP3      H2            -43.6681105720      -55.4618724159      -17.7136163352  W2        172             0.0000000000
       517       173  TIP3      OH2           -43.1986905720      -53.4857224159      -12.9436263352  W2        173             0.0000000000
       518       173  TIP3      H1            -42.9189805720      -54.3926824159      -12.8194563352  W2        173             0.0000000000
       519       173  TIP3      H2            -42.4395205720      -53.0515724159      -13.3327063352  W2        173             0.0000000000
       520       174  TIP3      OH2           -42.5868605720      -52.9039824159       -7.5077363352  W2        174             0.0000000000
       521       174  TIP3      H1            -41.6540605720      -52.6919924159       -7.5421363352  W2        174             0.0000000000
       522       174  TIP3      H2            -42.8221105720      -52.8027724159       -6.5854363352  W2        174             0.0000000000
       523       175  TIP3      OH2           -42.5576705720      -52.1674524159       -4.7317963352  W2        175             0.0000000000
       524       175  TIP3      H1            -43.4005405720      -51.8994124159       -4.3658163352  W2        175             0.0000000000
       525       175  TIP3      H2            -42.1152405720      -51.3452624159       -4.9426863352  W2        175             0.0000000000
       526       176  TIP3      OH2           -58.2764505720      -53.7195824159       -1.2548763352  W2        176             0.0000000000
       527       176  TIP3      H1            -57.3569605720      -53.8417524159       -1.0185663352  W2        176             0.0000000000
       528       176  TIP3      H2            -58.7260005720      -54.4696124159       -0.8655263352  W2        176             0.0000000000
       529       177  TIP3      OH2           -40.2745105720      -58.1874324159        0.6217036648  W2        177             0.0000000000
       530       177  TIP3      H1            -39.9248105720      -58.8410824159        0.0161736648  W2        177             0.0000000000
       531       177  TIP3      H2            -40.1275605720      -57.3500224159        0.1819636648  W2        177             0.0000000000
       532       178  TIP3      OH2           -42.5852105720      -56.2227924159      -12.8954263352  W2        178             0.0000000000
       533       178  TIP3      H1            -42.4027105720      -56.6716424159      -12.0699263352  W2        178             0.0000000000
       534       178  TIP3      H2            -43.1849205720      -56.8073524159      -13.3589663352  W2        178             0.0000000000
       535       179  TIP3      OH2           -57.0552005720      -55.4074224159       -8.3635863352  W2        179             0.0000000000
       536       179  TIP3      H1            -56.6100405720      -56.1991724159       -8.0616163352  W2        179             0.0000000000
       537       179  TIP3      H2            -56.5889005720      -54.6909024159       -7.9330263352  W2        179             0.0000000000
       538       180  TIP3      OH2           -58.7511705720      -52.4081224159       -7.2945663352  W2        180             0.0000000000
       539       180  TIP3      H1            -58.2591905720      -52.6290724159       -8.0853663352  W2        180             0.0000000000
       540       180  TIP3      H2            -58.3890805720      -51.5677824159       -7.0136163352  W2        180             0.0000000000
       541       181  TIP3      OH2           -40.7547905720      -56.0779724159       -1.0291663352  W2        181             0.0000000000
       542       181  TIP3      H1            -41.6722205720      -55.8072624159       -1.0648163352  W2        181             0.0000000000
       543       181  TIP3      H2            -40.6318505720      -56.6131324159       -1.8131963352  W2        181             0.0000000000
       544       182  TIP3      OH2           -40.7185905720      -56.1549824159      -16.3673963352  W2        182             0.0000000000
       545       182  TIP3      H1            -40.3063305720      -56.8764124159      -16.8425963352  W2        182             0.0000000000
       546       182  TIP3      H2            -40.0369405720      -55.4855224159      -16.3089663352  W2        182             0.0000000000
       547       183  TIP3      OH2           -58.4375205720      -56.1502124159      -13.2403263352  W2        183             0.0000000000
       548       183  TIP3      H1            -59.3626805720      -55.9415524159      -13.3697763352  W2        183             0.0000000000
       549       183  TIP3      H2            -57.9835305720      -55.6661324159      -13.9300963352  W2        183             0.0000000000
       550       184  TIP3      OH2           -43.6668005720      -41.1660424159      -11.2945863352  W2        184             0.0000000000
       551       184  TIP3      H1            -43.0145105720      -41.5138324159      -11.9026763352  W2        184             0.0000000000
       552       184  TIP3      H2            -43.1564205720      -40.6777224159      -10.6486163352  W2        184             0.0000000000
       553       185  TIP3      OH2           -58.4739805720      -57.4123124159       -4.8960763352  W2        185             0.0000000000
       554       185  TIP3      H1            -59.1389305720      -57.6582824159       -4.2529863352  W2        185             0.0000000000
       555       185  TIP3      H2            -58.9168505720      -56.7902724159       -5.4732763352  W2        185             0.0000000000
       556       186  TIP3      OH2           -56.2820505720      -44.2369024159       -0.7514963352  W2        186             0.0000000000
       557       186  TIP3      H1            -57.1028005720      -44.0622524159       -1.2120263352  W2        186             0.0000000000
       558       186  TIP3      H2            -56.5342705720      -44.3104324159        0.1689436648  W2        186             0.0000000000
       559       187  TIP3      OH2           -53.3277605720      -43.2627824159       -4.4930963352  W2        187             0.0000000000
       560       187  TIP3      H1            -53.7526505720      -42.4529324159       -4.7756363352  W2        187             0.0000000000
       561       187  TIP3      H2            -52.4234805720      -43.1773724159       -4.7951163352  W2        187             0.0000000000
       562       188  TIP3      OH2           -49.0166205720      -41.8637824159       -1.5337263352  W2        188             0.0000000000
       563       188  TIP3      H1            -48.8318705720      -42.1971724159       -0.6556963352  W2        188             0.0000000000
       564       188  TIP3      H2            -48.1701705720      -41.5539224159       -1.8558063352  W2        188             0.0000000000
       565       189  TIP3      OH2           -46.6715805720      -40.5778924159       -2.2895863352  W2        189             0.0000000000
       566       189  TIP3      H1            -45.9946905720      -41.2106624159       -2.5296663352  W2        189             0.0000000000
       567       189  TIP3      H2            -46.3497005720      -40.1768424159       -1.4822563352  W2        189             0.0000000000
       568       190  TIP3      OH2           -41.7542005720      -57.9883424159       -3.2100863352  W2        190             0.0000000000
       569       190  TIP3      H1            -42.5668505720      -57.6633124159       -3.5976163352  W2        190             0.0000000000
       570       190  TIP3      H2            -41.5213505720      -58.7484924159       -3.7431763352  W2        190             0.0000000000
       571       191  TIP3      OH2           -55.9260905720      -40.0063924159       -4.4455663352  W2        191             0.0000000000
       572       191  TIP3      H1            -56.6464505720      -39.5662924159       -4.8967963352  W2        191             0.0000000000
       573       191  TIP3      H2            -56.2916905720      -40.2569224159       -3.5971663352  W2        191             0.0000000000
       574       192  TIP3      OH2           -53.4588305720      -40.4060024159       -5.4158463352  W2        192             0.0000000000
       575       192  TIP3      H1            -54.3236105720      -40.3341524159       -5.0118363352  W2        192             0.0000000000
       576       192  TIP3      H2            -53.5139305720      -39.8592724159       -6.1995963352  W2        192             0.0000000000
       577       193  TIP3      OH2           -48.7482705720      -40.5181124159       -6.2402463352  W2        193             0.0000000000
       578       193  TIP3      H1            -49.2048705720      -39.9891424159       -6.8944063352  W2        193             0.0000000000
       579       193  TIP3      H2            -48.5854705720      -39.9149724159       -5.5150163352  W2        193             0.0000000000
       580       194  TIP3      OH2           -46.4206405720      -41.6401524159       -5.2952163352  W2        194             0.0000000000
       581       194  TIP3      H1            -47.3252705720      -41.4751324159       -5.5610063352  W2        194             0.0000000000
       582       194  TIP3      H2            -45.9917805720      -40.7869324159       -5.3608763352  W2        194             0.0000000000
       583       195  TIP3      OH2           -43.8164505720      -40.0702424159       -5.0004363352  W2        195             0.0000000000
       584       195  TIP3      H1            -43.9982505720      -39.1543524159       -5.2109463352  W2        195             0.0000000000
       585       195  TIP3      H2            -43.6396705720      -40.4805324159       -5.8469763352  W2        195             0.0000000000
       586       196  TIP3      OH2           -56.5112805720      -41.3831424159       -7.5353863352  W2        196             0.0000000000
       587       196  TIP3      H1            -56.5296805720      -41.8086324159       -6.6781563352  W2        196             0.0000000000
       588       196  TIP3      H2            -55.7064905720      -41.7016424159       -7.9441663352  W2        196             0.0000000000
       589       197  TIP3      OH2           -54.3699705720      -42.6732724159       -8.8803963352  W2        197             0.0000000000
       590       197  TIP3      H1            -54.5889005720      -43.5895324159       -8.7107963352  W2        197             0.0000000000
       591       197  TIP3      H2            -53.5457505720      -42.5332324159       -8.4142563352  W2        197             0.0000000000
       592       198  TIP3      OH2           -51.8327205720      -42.2033424159       -8.0315963352  W2        198             0.0000000000
       593       198  TIP3      H1            -51.6201505720      -43.0914424159       -8.3185063352  W2        198             0.0000000000
       594       198  TIP3      H2            -51.7682105720      -42.2375724159       -7.0771963352  W2        198             0.0000000000
       595       199  TIP3      OH2           -48.3243505720      -56.5392824159       -8.8872663352  W2        199             0.0000000000
       596       199  TIP3      H1            -48.9986705720      -57.1687224159       -8.6316863352  W2        199             0.0000000000
       597       199  TIP3      H2            -47.7604305720      -57.0233924159       -9.4904763352  W2        199             0.0000000000
       598       200  TIP3      OH2           -43.1816305720      -58.4318824159       -8.7745563352  W2        200             0.0000000000
       599       200  TIP3      H1            -42.5778705720      -57.8843424159       -9.2764563352  W2        200             0.0000000000
       600       200  TIP3      H2            -44.0514305720      -58.1128424159       -9.0151463352  W2        200             0.0000000000
       601       201  TIP3      OH2           -41.4545905720      -57.2930124159      -10.4414663352  W2        201             0.0000000000
       602       201  TIP3      H1            -40.8428405720      -57.8074424159      -10.9681063352  W2        201             0.0000000000
       603       201  TIP3      H2            -41.0722505720      -56.4158024159      -10.4180263352  W2        201             0.0000000000
       604       202  TIP3      OH2           -55.9976005720      -57.9052524159      -11.0652763352  W2        202             0.0000000000
       605       202  TIP3      H1            -56.7746205720      -58.1397624159      -11.5726863352  W2        202             0.0000000000
       606       202  TIP3      H2            -55.4672405720      -58.7020424159      -11.0564763352  W2        202             0.0000000000
       607       203  TIP3      OH2           -57.1612605720      -58.1074424159      -15.2616663352  W2        203             0.0000000000
       608       203  TIP3      H1            -56.7221905720      -57.4963924159      -15.8533163352  W2        203             0.0000000000
       609       203  TIP3      H2            -57.7950205720      -57.5690324159      -14.7876663352  W2        203             0.0000000000
       610       204  TIP3      OH2           -51.4183405720      -57.9785424159      -11.2519663352  W2        204             0.0000000000
       611       204  TIP3      H1            -50.5440005720      -57.5901124159      -11.2815363352  W2        204             0.0000000000
       612       204  TIP3      H2            -51.5542605720      -58.1937624159      -10.3292463352  W2        204             0.0000000000
       613       205  TIP3      OH2           -45.8615005720      -57.9485624159       -9.6027963352  W2        205             0.0000000000
       614       205  TIP3      H1            -45.7853405720      -57.8534024159      -10.5521963352  W2        205             0.0000000000
       615       205  TIP3      H2            -46.1365805720      -58.8562724159       -9.4738863352  W2        205             0.0000000000
       616       206  TIP3      OH2           -44.5082405720      -57.9227824159      -13.9102963352  W2        206             0.0000000000
       617       206  TIP3      H1            -45.2111305720      -57.3078624159      -14.1201563352  W2        206             0.0000000000
       618       206  TIP3      H2            -44.9531005720      -58.7601124159      -13.7792063352  W2        206             0.0000000000
       619       207  TIP3      OH2           -57.2603105720      -42.1592224159      -14.3641563352  W2        207             0.0000000000
       620       207  TIP3      H1            -57.9453205720      -42.1973324159      -15.0316463352  W2        207             0.0000000000
       621       207  TIP3      H2            -57.2565905720      -41.2464624159      -14.0759463352  W2        207             0.0000000000
       622       208  TIP3      OH2           -55.3003505720      -56.1912924159      -16.8192563352  W2        208             0.0000000000
       623       208  TIP3      H1            -54.8090105720      -56.8210524159      -17.3467063352  W2        208             0.0000000000
       624       208  TIP3      H2            -54.6767205720      -55.8953524159      -16.1561363352  W2        208             0.0000000000
       625       209  TIP3      OH2           -50.2743405720      -55.8981424159      -14.3622063352  W2        209             0.0000000000
       626       209  TIP3      H1            -50.0962105720      -56.5448224159      -13.6793463352  W2        209             0.0000000000
       627       209  TIP3      H2            -50.3277205720      -55.0643724159      -13.8950963352  W2        209             0.0000000000
       628       210  TIP3      OH2           -48.3959605720      -40.9497324159      -15.9665363352  W2        210             0.0000000000
       629       210  TIP3      H1            -47.5299405720      -40.5829924159      -16.1447163352  W2        210             0.0000000000
       630       210  TIP3      H2            -48.6426805720      -41.3889324159      -16.7804563352  W2        210             0.0000000000
       631       211  TIP3      OH2           -41.6870005720      -41.3867024159      -13.2874263352  W2        211             0.0000000000
       632       211  TIP3      H1            -41.8812905720      -42.1344924159      -13.8524663352  W2        211             0.0000000000
       633       211  TIP3      H2            -41.7259905720      -40.6286924159      -13.8706363352  W2        211             0.0000000000
       634       212  TIP3      OH2           -56.0398005720      -57.3910624159       -1.5476563352  W2        212             0.0000000000
       635       212  TIP3      H1            -56.4059805720      -58.1568024159       -1.1051863352  W2        212             0.0000000000
       636       212  TIP3      H2            -55.1269505720      -57.3620424159       -1.2611463352  W2        212             0.0000000000
       637       213  TIP3      OH2           -54.0667205720      -58.0406224159       -0.0119463352  W2        213             0.0000000000
       638       213  TIP3      H1            -53.1683605720      -58.3146024159       -0.1966063352  W2        213             0.0000000000
       639       213  TIP3      H2            -54.4534105720      -58.7830224159        0.4523136648  W2        213             0.0000000000
       640       214  TIP3      OH2           -55.4421905720      -41.2391424159      -17.3389463352  W2        214             0.0000000000
       641       214  TIP3      H1            -55.7097305720      -40.9528524159      -16.4656363352  W2        214             0.0000000000
       642       214  TIP3      H2            -54.6709305720      -41.7852224159      -17.1866963352  W2        214             0.0000000000
       643       215  TIP3      OH2           -45.6454905720      -58.7080924159        0.1703336648  W2        215             0.0000000000
       644       215  TIP3      H1            -45.5687705720      -59.1340224159        1.0241036648  W2        215             0.0000000000
       645       215  TIP3      H2            -44.7518305720      -58.6946224159       -0.1723163352  W2        215             0.0000000000
       646       216  TIP3      OH2           -42.4693805720      -42.6354624159       -1.1372463352  W2        216             0.0000000000
       647       216  TIP3      H1            -43.2511905720      -42.8216624159       -1.6571863352  W2        216             0.0000000000
       648       216  TIP3      H2            -42.5413905720      -41.7060324159       -0.9199963352  W2        216             0.0000000000
       649       217  TIP3      OH2           -28.0633405720      -48.7490224159      -11.1065263352  W2        217             0.0000000000
       650       217  TIP3      H1            -27.9742305720      -47.8052024159      -11.2388163352  W2        217             0.0000000000
       651       217  TIP3      H2            -28.7015805720      -49.0243824159      -11.7645863352  W2        217             0.0000000000
       652       218  TIP3      OH2           -29.1302105720      -49.4939524159       -7.6877063352  W2        218             0.0000000000
       653       218  TIP3      H1            -29.1684605720      -50.1403224159       -6.9827463352  W2        218             0.0000000000
       654       218  TIP3      H2            -29.4525605720      -49.9605124159       -8.4588363352  W2        218             0.0000000000
       655       219  TIP3      OH2           -36.7617105720      -49.8797424159       -6.0947163352  W2        219             0.0000000000
       656       219  TIP3      H1            -36.7205005720      -50.5054124159       -5.3714763352  W2        219             0.0000000000
       657       219  TIP3      H2            -36.0589405720      -49.2558824159       -5.9126763352  W2        219             0.0000000000
       658       220  TIP3      OH2           -25.4241905720      -46.5549124159       -9.3861963352  W2        220             0.0000000000
       659       220  TIP3      H1            -25.8649205720      -47.2753124159       -8.9356363352  W2        220             0.0000000000
       660       220  TIP3      H2            -25.4372205720      -45.8341924159       -8.7564263352  W2        220             0.0000000000
       661       221  TIP3      OH2           -35.8384005720      -45.4298524159       -7.5598063352  W2        221             0.0000000000
       662       221  TIP3      H1            -36.2078805720      -46.2318024159       -7.9293763352  W2        221             0.0000000000
       663       221  TIP3      H2            -34.8972905720      -45.5983624159       -7.5134663352  W2        221             0.0000000000
       664       222  TIP3      OH2           -39.2283505720      -51.7695924159      -12.1669263352  W2        222             0.0000000000
       665       222  TIP3      H1            -39.6760105720      -50.9237224159      -12.1852763352  W2        222             0.0000000000
       666       222  TIP3      H2            -39.7892305720      -52.3491724159      -12.6824163352  W2        222             0.0000000000
       667       223  TIP3      OH2           -38.5177405720      -49.6076324159      -10.0411263352  W2        223             0.0000000000
       668       223  TIP3      H1            -38.3043905720      -50.3774724159       -9.5138263352  W2        223             0.0000000000
       669       223  TIP3      H2            -37.7799805720      -49.5179624159      -10.6443663352  W2        223             0.0000000000
       670       224  TIP3      OH2           -28.3126405720      -41.4507424159       -9.1741563352  W2        224             0.0000000000
       671       224  TIP3      H1            -27.6930005720      -42.1272724159       -9.4472363352  W2        224             0.0000000000
       672       224  TIP3      H2            -28.5209005720      -41.6686624159       -8.2656663352  W2        224             0.0000000000
       673       225  TIP3      OH2           -30.7407705720      -47.0618124159       -7.2816063352  W2        225             0.0000000000
       674       225  TIP3      H1            -30.4369805720      -47.7476724159       -7.8761963352  W2        225             0.0000000000
       675       225  TIP3      H2            -30.0193705720      -46.9429424159       -6.6638063352  W2        225             0.0000000000
       676       226  TIP3      OH2           -22.0777905720      -55.4602824159       -6.4209863352  W2        226             0.0000000000
       677       226  TIP3      H1            -22.0285705720      -54.8501624159       -5.6850763352  W2        226             0.0000000000
       678       226  TIP3      H2            -21.6522805720      -54.9991924159       -7.1438763352  W2        226             0.0000000000
       679       227  TIP3      OH2           -27.6000705720      -52.6675724159       -6.9541263352  W2        227             0.0000000000
       680       227  TIP3      H1            -27.4574805720      -53.6138724159       -6.9339663352  W2        227             0.0000000000
       681       227  TIP3      H2            -27.7061705720      -52.4605924159       -7.8826363352  W2        227             0.0000000000
       682       228  TIP3      OH2           -34.4452405720      -54.5659324159       -9.6816463352  W2        228             0.0000000000
       683       228  TIP3      H1            -34.4021305720      -53.7060824159      -10.1000163352  W2        228             0.0000000000
       684       228  TIP3      H2            -34.9028305720      -55.1184624159      -10.3153263352  W2        228             0.0000000000
       685       229  TIP3      OH2           -26.7229705720      -54.4353724159      -11.2808163352  W2        229             0.0000000000
       686       229  TIP3      H1            -26.0765405720      -54.7640524159      -10.6560563352  W2        229             0.0000000000
       687       229  TIP3      H2            -26.2130305720      -53.9174724159      -11.9036763352  W2        229             0.0000000000
       688       230  TIP3      OH2           -37.8250905720      -52.1693524159       -8.9195063352  W2        230             0.0000000000
       689       230  TIP3      H1            -37.1714305720      -52.7191824159       -8.4874963352  W2        230             0.0000000000
       690       230  TIP3      H2            -37.8011605720      -52.4434524159       -9.8363063352  W2        230             0.0000000000
       691       231  TIP3      OH2           -32.6686405720      -50.6192224159       -9.7043563352  W2        231             0.0000000000
       692       231  TIP3      H1            -32.0525405720      -51.1456824159       -9.1949563352  W2        231             0.0000000000
       693       231  TIP3      H2            -33.2547605720      -51.2593524159      -10.1079963352  W2        231             0.0000000000
       694       232  TIP3      OH2           -21.6863305720      -53.9823624159       -4.1850063352  W2        232             0.0000000000
       695       232  TIP3      H1            -22.3748705720      -53.3242924159       -4.2803463352  W2        232             0.0000000000
       696       232  TIP3      H2            -21.6708705720      -54.1795724159       -3.2484663352  W2        232             0.0000000000
       697       233  TIP3      OH2           -35.6350505720      -55.6480924159       -5.6075663352  W2        233             0.0000000000
       698       233  TIP3      H1            -35.8538805720      -55.1180324159       -6.3739663352  W2        233             0.0000000000
       699       233  TIP3      H2            -36.3029605720      -55.4215424159       -4.9604263352  W2        233             0.0000000000
       700       234  TIP3      OH2           -28.2660705720      -46.1479824159      -12.0636563352  W2        234             0.0000000000
       701       234  TIP3      H1            -28.5615605720      -46.4707524159      -12.9149663352  W2        234             0.0000000000
       702       234  TIP3      H2            -28.5902905720      -45.2483124159      -12.0223963352  W2        234             0.0000000000
       703       235  TIP3      OH2           -33.0659105720      -47.9725224159       -5.3201963352  W2        235             0.0000000000
       704       235  TIP3      H1            -33.8060005720      -47.3743724159       -5.2166763352  W2        235             0.0000000000
       705       235  TIP3      H2            -32.3519605720      -47.4185624159       -5.6358363352  W2        235             0.0000000000
       706       236  TIP3      OH2           -24.9591305720      -55.1444424159       -9.3002263352  W2        236             0.0000000000
       707       236  TIP3      H1            -25.1743305720      -55.9101024159       -8.7676263352  W2        236             0.0000000000
       708       236  TIP3      H2            -24.3033905720      -54.6719824159       -8.7873763352  W2        236             0.0000000000
       709       237  TIP3      OH2           -36.0413205720      -53.7559124159       -7.6553463352  W2        237             0.0000000000
       710       237  TIP3      H1            -35.4276905720      -53.1231524159       -7.2821063352  W2        237             0.0000000000
       711       237  TIP3      H2            -35.5292505720      -54.2284124159       -8.3116563352  W2        237             0.0000000000
       712       238  TIP3      OH2           -34.6584805720      -46.0082224159       -4.5330463352  W2        238             0.0000000000
       713       238  TIP3      H1            -34.6637205720      -45.1288724159       -4.9111163352  W2        238             0.0000000000
       714       238  TIP3      H2            -35.5120705720      -46.0918124159       -4.1080563352  W2        238             0.0000000000
       715       239  TIP3      OH2           -38.5373905720      -46.3374324159      -13.7511163352  W2        239             0.0000000000
       716       239  TIP3      H1            -38.8093005720      -46.1083324159      -14.6398263352  W2        239             0.0000000000
       717       239  TIP3      H2            -38.4918205720      -45.4995524159      -13.2905863352  W2        239             0.0000000000
       718       240  TIP3      OH2           -24.9124205720      -44.7158424159       -7.0382663352  W2        240             0.0000000000
       719       240  TIP3      H1            -25.8540505720      -44.6574524159       -6.8765763352  W2        240             0.0000000000
       720       240  TIP3      H2            -24.6358105720      -43.8097924159       -7.1752963352  W2        240             0.0000000000
       721       241  TIP3      OH2           -24.6117205720      -56.4293124159       -5.6208763352  W2        241             0.0000000000
       722       241  TIP3      H1            -25.3478005720      -55.8186024159       -5.6587463352  W2        241             0.0000000000
       723       241  TIP3      H2            -23.9283205720      -56.0144124159       -6.1472363352  W2        241             0.0000000000
       724       242  TIP3      OH2           -31.6085805720      -58.3425824159       -8.1550763352  W2        242             0.0000000000
       725       242  TIP3      H1            -31.7261605720      -59.2909824159       -8.2092463352  W2        242             0.0000000000
       726       242  TIP3      H2            -32.4635705720      -58.0099724159       -7.8819663352  W2        242             0.0000000000
       727       243  TIP3      OH2           -26.6603005720      -42.9344924159      -10.4131063352  W2        243             0.0000000000
       728       243  TIP3      H1            -26.2350705720      -43.6417024159      -10.8981463352  W2        243             0.0000000000
       729       243  TIP3      H2            -26.3433005720      -42.1332224159      -10.8298863352  W2        243             0.0000000000
       730       244  TIP3      OH2           -25.5006505720      -45.0336424159      -11.9044463352  W2        244             0.0000000000
       731       244  TIP3      H1            -25.7581705720      -45.7236324159      -12.5158563352  W2        244             0.0000000000
       732       244  TIP3      H2            -25.4295705720      -45.4765224159      -11.0588563352  W2        244             0.0000000000
       733       245  TIP3      OH2           -23.8146305720      -46.4669724159       -3.4270963352  W2        245             0.0000000000
       734       245  TIP3      H1            -23.6750005720      -47.0587224159       -4.1663963352  W2        245             0.0000000000
       735       245  TIP3      H2            -23.6473505720      -45.5943824159       -3.7832163352  W2        245             0.0000000000
       736       246  TIP3      OH2           -29.3420905720      -49.5050224159      -13.6544963352  W2        246             0.0000000000
       737       246  TIP3      H1            -30.0535405720      -48.9700524159      -14.0064463352  W2        246             0.0000000000
       738       246  TIP3      H2            -28.6511305720      -49.4498124159      -14.3146063352  W2        246             0.0000000000
       739       247  TIP3      OH2           -29.2881705720      -51.0475924159      -16.6159963352  W2        247             0.0000000000
       740       247  TIP3      H1            -28.5871805720      -51.0249024159      -15.9645963352  W2        247             0.0000000000
       741       247  TIP3      H2            -28.9858805720      -51.6756224159      -17.2720663352  W2        247             0.0000000000
       742       248  TIP3      OH2           -21.9727005720      -50.1271724159       -5.3610563352  W2        248             0.0000000000
       743       248  TIP3      H1            -22.6252905720      -49.4326124159       -5.2719663352  W2        248             0.0000000000
       744       248  TIP3      H2            -21.5076705720      -49.9170824159       -6.1708963352  W2        248             0.0000000000
       745       249  TIP3      OH2           -25.9363205720      -49.2956924159      -12.7029063352  W2        249             0.0000000000
       746       249  TIP3      H1            -26.6682205720      -49.0673224159      -12.1298463352  W2        249             0.0000000000
       747       249  TIP3      H2            -25.4891005720      -50.0094224159      -12.2481563352  W2        249             0.0000000000
       748       250  TIP3      OH2           -26.0389705720      -51.1214324159       -3.6352063352  W2        250             0.0000000000
       749       250  TIP3      H1            -25.9590605720      -50.3579924159       -3.0633563352  W2        250             0.0000000000
       750       250  TIP3      H2            -26.6402005720      -50.8421924159       -4.3256963352  W2        250             0.0000000000
       751       251  TIP3      OH2           -34.2909505720      -48.6650724159      -10.8204063352  W2        251             0.0000000000
       752       251  TIP3      H1            -34.6214305720      -49.0357324159      -11.6387063352  W2        251             0.0000000000
       753       251  TIP3      H2            -33.7025405720      -49.3356724159      -10.4735763352  W2        251             0.0000000000
       754       252  TIP3      OH2           -32.9242005720      -45.2370124159       -8.1391863352  W2        252             0.0000000000
       755       252  TIP3      H1            -33.0190705720      -45.8157024159       -8.8957263352  W2        252             0.0000000000
       756       252  TIP3      H2            -32.1948405720      -45.6084424159       -7.6429063352  W2        252             0.0000000000
       757       253  TIP3      OH2           -33.9244005720      -49.8965124159       -7.1869063352  W2        253             0.0000000000
       758       253  TIP3      H1            -33.3591505720      -49.7750924159       -7.9497863352  W2        253             0.0000000000
       759       253  TIP3      H2            -33.6055105720      -49.2590124159       -6.5480563352  W2        253             0.0000000000
       760       254  TIP3      OH2           -27.6151805720      -44.3933224159       -6.4528563352  W2        254             0.0000000000
       761       254  TIP3      H1            -27.8555205720      -43.7310124159       -5.8049363352  W2        254             0.0000000000
       762       254  TIP3      H2            -27.8133605720      -45.2278024159       -6.0278963352  W2        254             0.0000000000
       763       255  TIP3      OH2           -33.0443305720      -45.4972424159       -2.4697163352  W2        255             0.0000000000
       764       255  TIP3      H1            -33.3555805720      -44.7149224159       -2.0143963352  W2        255             0.0000000000
       765       255  TIP3      H2            -33.6943105720      -45.6503324159       -3.1555163352  W2        255             0.0000000000
       766       256  TIP3      OH2           -27.0653705720      -50.1334024159      -15.0177863352  W2        256             0.0000000000
       767       256  TIP3      H1            -26.4858205720      -49.9833724159      -14.2708963352  W2        256             0.0000000000
       768       256  TIP3      H2            -26.6513705720      -49.6626624159      -15.7411463352  W2        256             0.0000000000
       769       257  TIP3      OH2           -36.1243405720      -49.2991324159       -3.2411463352  W2        257             0.0000000000
       770       257  TIP3      H1            -36.0540205720      -48.6484524159       -2.5426463352  W2        257             0.0000000000
       771       257  TIP3      H2            -37.0151205720      -49.1963824159       -3.5760563352  W2        257             0.0000000000
       772       258  TIP3      OH2           -29.3388805720      -43.3965524159      -11.5824763352  W2        258             0.0000000000
       773       258  TIP3      H1            -28.8651205720      -43.1009224159      -10.8050563352  W2        258             0.0000000000
       774       258  TIP3      H2            -29.9019505720      -42.6583924159      -11.8155163352  W2        258             0.0000000000
       775       259  TIP3      OH2           -34.8047405720      -43.4257424159       -1.7063363352  W2        259             0.0000000000
       776       259  TIP3      H1            -34.7972105720      -43.5617724159       -2.6537863352  W2        259             0.0000000000
       777       259  TIP3      H2            -35.7207005720      -43.5429324159       -1.4543363352  W2        259             0.0000000000
       778       260  TIP3      OH2           -23.3665305720      -58.3833624159      -15.2048163352  W2        260             0.0000000000
       779       260  TIP3      H1            -24.2664605720      -58.2444624159      -14.9097563352  W2        260             0.0000000000
       780       260  TIP3      H2            -23.1146905720      -57.5519024159      -15.6066463352  W2        260             0.0000000000
       781       261  TIP3      OH2           -35.3006805720      -49.5956424159      -13.2311263352  W2        261             0.0000000000
       782       261  TIP3      H1            -35.5925505720      -48.8274724159      -13.7219963352  W2        261             0.0000000000
       783       261  TIP3      H2            -35.9751605720      -50.2550224159      -13.3939863352  W2        261             0.0000000000
       784       262  TIP3      OH2           -22.1773905720      -44.0171224159      -16.8284263352  W2        262             0.0000000000
       785       262  TIP3      H1            -22.1040405720      -43.0781024159      -16.6578963352  W2        262             0.0000000000
       786       262  TIP3      H2            -21.2718805720      -44.3222624159      -16.8846963352  W2        262             0.0000000000
       787       263  TIP3      OH2           -39.2076705720      -47.2327224159       -4.4161463352  W2        263             0.0000000000
       788       263  TIP3      H1            -39.7088305720      -47.2607824159       -5.2311763352  W2        263             0.0000000000
       789       263  TIP3      H2            -39.2023005720      -48.1384024159       -4.1064163352  W2        263             0.0000000000
       790       264  TIP3      OH2           -39.4574005720      -44.4523424159       -7.5321263352  W2        264             0.0000000000
       791       264  TIP3      H1            -38.5113405720      -44.5966424159       -7.5511763352  W2        264             0.0000000000
       792       264  TIP3      H2            -39.5697705720      -43.6680624159       -6.9950063352  W2        264             0.0000000000
       793       265  TIP3      OH2           -21.2595505720      -43.7863724159       -1.8497563352  W2        265             0.0000000000
       794       265  TIP3      H1            -21.3088705720      -44.7415624159       -1.8869963352  W2        265             0.0000000000
       795       265  TIP3      H2            -22.0863205720      -43.5188424159       -1.4483763352  W2        265             0.0000000000
       796       266  TIP3      OH2           -30.2811505720      -44.2124524159       -2.9736163352  W2        266             0.0000000000
       797       266  TIP3      H1            -30.1936905720      -43.3859924159       -2.4987063352  W2        266             0.0000000000
       798       266  TIP3      H2            -31.1446405720      -44.5420724159       -2.7246863352  W2        266             0.0000000000
       799       267  TIP3      OH2           -29.8665705720      -40.4400824159      -13.1675563352  W2        267             0.0000000000
       800       267  TIP3      H1            -29.9419705720      -40.5613624159      -14.1140363352  W2        267             0.0000000000
       801       267  TIP3      H2            -29.8337005720      -39.4908124159      -13.0490963352  W2        267             0.0000000000
       802       268  TIP3      OH2           -36.2131905720      -41.6513824159      -11.3866563352  W2        268             0.0000000000
       803       268  TIP3      H1            -36.0611505720      -41.9993424159      -10.5080063352  W2        268             0.0000000000
       804       268  TIP3      H2            -37.0641505720      -42.0076524159      -11.6419363352  W2        268             0.0000000000
       805       269  TIP3      OH2           -26.7649705720      -41.2860624159      -16.1653163352  W2        269             0.0000000000
       806       269  TIP3      H1            -26.3901305720      -42.0304524159      -16.6360563352  W2        269             0.0000000000
       807       269  TIP3      H2            -26.7606005720      -41.5560024159      -15.2469863352  W2        269             0.0000000000
       808       270  TIP3      OH2           -27.0961605720      -41.3603524159      -13.4160963352  W2        270             0.0000000000
       809       270  TIP3      H1            -28.0311805720      -41.2601624159      -13.2373963352  W2        270             0.0000000000
       810       270  TIP3      H2            -26.8159705720      -42.0697524159      -12.8377763352  W2        270             0.0000000000
       811       271  TIP3      OH2           -24.1075705720      -52.2931224159       -1.3695363352  W2        271             0.0000000000
       812       271  TIP3      H1            -24.5148905720      -51.8125624159       -2.0902063352  W2        271             0.0000000000
       813       271  TIP3      H2            -24.0670005720      -53.1985224159       -1.6774563352  W2        271             0.0000000000
       814       272  TIP3      OH2           -36.9586205720      -45.9091824159       -3.3728663352  W2        272             0.0000000000
       815       272  TIP3      H1            -36.7424905720      -46.2706224159       -2.5132863352  W2        272             0.0000000000
       816       272  TIP3      H2            -37.8141505720      -46.2838024159       -3.5825163352  W2        272             0.0000000000
       817       273  TIP3      OH2           -34.3398205720      -57.4391324159       -7.3774463352  W2        273             0.0000000000
       818       273  TIP3      H1            -35.2014505720      -57.5263124159       -7.7851563352  W2        273             0.0000000000
       819       273  TIP3      H2            -34.3622505720      -56.5831224159       -6.9496863352  W2        273             0.0000000000
       820       274  TIP3      OH2           -29.6770405720      -57.7170924159       -4.0027463352  W2        274             0.0000000000
       821       274  TIP3      H1            -29.2567305720      -58.1323824159       -3.2496863352  W2        274             0.0000000000
       822       274  TIP3      H2            -30.6100805720      -57.8957624159       -3.8855463352  W2        274             0.0000000000
       823       275  TIP3      OH2           -26.3505505720      -53.9615724159       -3.1492963352  W2        275             0.0000000000
       824       275  TIP3      H1            -26.8646005720      -54.0873524159       -2.3516963352  W2        275             0.0000000000
       825       275  TIP3      H2            -26.5060805720      -53.0492624159       -3.3936763352  W2        275             0.0000000000
       826       276  TIP3      OH2           -25.5880605720      -49.1005724159      -17.3879963352  W2        276             0.0000000000
       827       276  TIP3      H1            -25.5459805720      -49.3231824159      -18.3179963352  W2        276             0.0000000000
       828       276  TIP3      H2            -24.7388505720      -48.7018624159      -17.1980063352  W2        276             0.0000000000
       829       277  TIP3      OH2           -30.0153105720      -55.2247524159      -16.7176663352  W2        277             0.0000000000
       830       277  TIP3      H1            -30.2688305720      -55.2055924159      -15.7948563352  W2        277             0.0000000000
       831       277  TIP3      H2            -30.2721005720      -56.0962124159      -17.0190463352  W2        277             0.0000000000
       832       278  TIP3      OH2           -34.2488105720      -52.4736824159       -6.2824263352  W2        278             0.0000000000
       833       278  TIP3      H1            -34.8906005720      -52.5139524159       -5.5734163352  W2        278             0.0000000000
       834       278  TIP3      H2            -34.2116105720      -51.5472124159       -6.5201263352  W2        278             0.0000000000
       835       279  TIP3      OH2           -34.2519005720      -52.2526724159      -11.3704263352  W2        279             0.0000000000
       836       279  TIP3      H1            -35.1446105720      -52.5930624159      -11.4290463352  W2        279             0.0000000000
       837       279  TIP3      H2            -33.8012405720      -52.6295824159      -12.1261063352  W2        279             0.0000000000
       838       280  TIP3      OH2           -28.7163505720      -51.8366424159      -12.5533463352  W2        280             0.0000000000
       839       280  TIP3      H1            -29.1253205720      -51.0217824159      -12.8448663352  W2        280             0.0000000000
       840       280  TIP3      H2            -27.9957305720      -51.9766324159      -13.1676363352  W2        280             0.0000000000
       841       281  TIP3      OH2           -29.6141905720      -51.6610024159       -1.0652763352  W2        281             0.0000000000
       842       281  TIP3      H1            -30.1768105720      -52.3658424159       -0.7444963352  W2        281             0.0000000000
       843       281  TIP3      H2            -28.7878505720      -51.7818124159       -0.5975163352  W2        281             0.0000000000
       844       282  TIP3      OH2           -27.7115805720      -52.3906024159       -9.7393763352  W2        282             0.0000000000
       845       282  TIP3      H1            -27.9071305720      -51.7849224159      -10.4543163352  W2        282             0.0000000000
       846       282  TIP3      H2            -27.5303205720      -53.2240824159      -10.1737463352  W2        282             0.0000000000
       847       283  TIP3      OH2           -36.4987605720      -52.1533324159       -4.4152263352  W2        283             0.0000000000
       848       283  TIP3      H1            -36.5368205720      -51.7531724159       -3.5465163352  W2        283             0.0000000000
       849       283  TIP3      H2            -36.9896505720      -52.9700924159       -4.3249363352  W2        283             0.0000000000
       850       284  TIP3      OH2           -33.1330205720      -54.7791024159      -17.6166263352  W2        284             0.0000000000
       851       284  TIP3      H1            -33.5639505720      -55.2240924159      -16.8868863352  W2        284             0.0000000000
       852       284  TIP3      H2            -33.8511505720      -54.4074724159      -18.1288763352  W2        284             0.0000000000
       853       285  TIP3      OH2           -39.8906805720      -55.0371524159      -10.5647563352  W2        285             0.0000000000
       854       285  TIP3      H1            -39.2599105720      -55.0659424159       -9.8453663352  W2        285             0.0000000000
       855       285  TIP3      H2            -39.4412505720      -55.4622824159      -11.2951663352  W2        285             0.0000000000
       856       286  TIP3      OH2           -38.6164705720      -54.2909524159      -15.1407163352  W2        286             0.0000000000
       857       286  TIP3      H1            -38.1423005720      -53.6999624159      -15.7256263352  W2        286             0.0000000000
       858       286  TIP3      H2            -39.3338305720      -53.7606624159      -14.7937063352  W2        286             0.0000000000
       859       287  TIP3      OH2           -28.4476605720      -50.7524724159       -5.0681363352  W2        287             0.0000000000
       860       287  TIP3      H1            -28.1241805720      -51.3835024159       -5.7110863352  W2        287             0.0000000000
       861       287  TIP3      H2            -28.8877305720      -51.2872524159       -4.4073963352  W2        287             0.0000000000
       862       288  TIP3      OH2           -31.6703705720      -54.8249224159      -10.2840163352  W2        288             0.0000000000
       863       288  TIP3      H1            -32.5812605720      -54.7682424159       -9.9954163352  W2        288             0.0000000000
       864       288  TIP3      H2            -31.1650805720      -54.8853724159       -9.4732963352  W2        288             0.0000000000
       865       289  TIP3      OH2           -36.8420305720      -53.1962924159      -11.4572563352  W2        289             0.0000000000
       866       289  TIP3      H1            -37.7312305720      -53.0967424159      -11.7972963352  W2        289             0.0000000000
       867       289  TIP3      H2            -36.5455405720      -54.0379924159      -11.8034663352  W2        289             0.0000000000
       868       290  TIP3      OH2           -33.1888505720      -53.1960324159      -13.8007963352  W2        290             0.0000000000
       869       290  TIP3      H1            -32.2573005720      -53.0670324159      -13.6224863352  W2        290             0.0000000000
       870       290  TIP3      H2            -33.4038205720      -52.5266024159      -14.4503263352  W2        290             0.0000000000
       871       291  TIP3      OH2           -27.2651805720      -55.5902924159       -7.0198363352  W2        291             0.0000000000
       872       291  TIP3      H1            -27.9420205720      -55.4589824159       -6.3558663352  W2        291             0.0000000000
       873       291  TIP3      H2            -27.7506905720      -55.7453424159       -7.8300663352  W2        291             0.0000000000
       874       292  TIP3      OH2           -34.5148305720      -52.0018124159      -16.2341863352  W2        292             0.0000000000
       875       292  TIP3      H1            -35.0573205720      -52.3814324159      -16.9254263352  W2        292             0.0000000000
       876       292  TIP3      H2            -33.6813405720      -51.8073424159      -16.6627763352  W2        292             0.0000000000
       877       293  TIP3      OH2           -23.9776705720      -39.9187524159       -0.7430763352  W2        293             0.0000000000
       878       293  TIP3      H1            -23.7778005720      -39.4945624159       -1.5775463352  W2        293             0.0000000000
       879       293  TIP3      H2            -23.3223005720      -39.5749324159       -0.1360363352  W2        293             0.0000000000
       880       294  TIP3      OH2           -36.3796905720      -47.4446224159       -1.1350263352  W2        294             0.0000000000
       881       294  TIP3      H1            -35.6474505720      -47.1900324159       -0.5735763352  W2        294             0.0000000000
       882       294  TIP3      H2            -37.1598205720      -47.2400824159       -0.6194863352  W2        294             0.0000000000
       883       295  TIP3      OH2           -30.3504005720      -52.0376224159       -8.3970563352  W2        295             0.0000000000
       884       295  TIP3      H1            -29.7860605720      -52.5839624159       -8.9440963352  W2        295             0.0000000000
       885       295  TIP3      H2            -30.4980605720      -52.5594324159       -7.6082963352  W2        295             0.0000000000
       886       296  TIP3      OH2           -35.3484305720      -55.9010124159      -11.9785763352  W2        296             0.0000000000
       887       296  TIP3      H1            -35.6654805720      -56.8034824159      -12.0140363352  W2        296             0.0000000000
       888       296  TIP3      H2            -34.5670205720      -55.8992724159      -12.5314163352  W2        296             0.0000000000
       889       297  TIP3      OH2           -31.7238105720      -53.6490124159       -5.9830163352  W2        297             0.0000000000
       890       297  TIP3      H1            -32.5592805720      -53.1950624159       -5.8727763352  W2        297             0.0000000000
       891       297  TIP3      H2            -31.1997505720      -53.3731624159       -5.2310263352  W2        297             0.0000000000
       892       298  TIP3      OH2           -31.1795505720      -47.4362424159      -14.2983763352  W2        298             0.0000000000
       893       298  TIP3      H1            -31.9244505720      -47.9437124159      -14.6205863352  W2        298             0.0000000000
       894       298  TIP3      H2            -31.3138305720      -47.3874424159      -13.3518963352  W2        298             0.0000000000
       895       299  TIP3      OH2           -24.0296605720      -48.3034224159       -5.5116163352  W2        299             0.0000000000
       896       299  TIP3      H1            -23.3877805720      -47.8467924159       -6.0553963352  W2        299             0.0000000000
       897       299  TIP3      H2            -24.8599705720      -48.1901824159       -5.9742063352  W2        299             0.0000000000
       898       300  TIP3      OH2           -27.2818705720      -54.6222524159      -16.0991163352  W2        300             0.0000000000
       899       300  TIP3      H1            -28.2204505720      -54.5106924159      -16.2502363352  W2        300             0.0000000000
       900       300  TIP3      H2            -26.9846605720      -53.7655624159      -15.7925463352  W2        300             0.0000000000
       901       301  TIP3      OH2           -29.6603405720      -47.2519124159       -3.0614663352  W2        301             0.0000000000
       902       301  TIP3      H1            -30.0057305720      -47.6336724159       -2.2545063352  W2        301             0.0000000000
       903       301  TIP3      H2            -29.8603305720      -46.3185524159       -2.9901763352  W2        301             0.0000000000
       904       302  TIP3      OH2           -26.5635205720      -52.7549824159      -14.4383763352  W2        302             0.0000000000
       905       302  TIP3      H1            -25.6716205720      -52.8924824159      -14.1192563352  W2        302             0.0000000000
       906       302  TIP3      H2            -26.5071605720      -51.9643724159      -14.9750263352  W2        302             0.0000000000
       907       303  TIP3      OH2           -36.0547205720      -48.1412424159       -8.5285863352  W2        303             0.0000000000
       908       303  TIP3      H1            -35.3100005720      -48.1436724159       -9.1299363352  W2        303             0.0000000000
       909       303  TIP3      H2            -35.9770605720      -48.9648624159       -8.0470763352  W2        303             0.0000000000
       910       304  TIP3      OH2           -29.0541405720      -45.9778124159      -15.2729163352  W2        304             0.0000000000
       911       304  TIP3      H1            -29.3493005720      -45.1510224159      -14.8914363352  W2        304             0.0000000000
       912       304  TIP3      H2            -29.7571405720      -46.5971224159      -15.0767763352  W2        304             0.0000000000
       913       305  TIP3      OH2           -39.0467505720      -49.6805524159       -3.2137363352  W2        305             0.0000000000
       914       305  TIP3      H1            -38.8238905720      -50.0985924159       -2.3819863352  W2        305             0.0000000000
       915       305  TIP3      H2            -39.6487405720      -50.2930524159       -3.6364563352  W2        305             0.0000000000
       916       306  TIP3      OH2           -32.0302605720      -50.1635624159       -1.0007663352  W2        306             0.0000000000
       917       306  TIP3      H1            -32.3261805720      -50.3292624159       -1.8958563352  W2        306             0.0000000000
       918       306  TIP3      H2            -31.0987405720      -50.3835324159       -1.0113763352  W2        306             0.0000000000
       919       307  TIP3      OH2           -27.4099805720      -44.7903624159       -3.1109663352  W2        307             0.0000000000
       920       307  TIP3      H1            -28.3105505720      -44.6071024159       -3.3785763352  W2        307             0.0000000000
       921       307  TIP3      H2            -27.3758705720      -44.5314324159       -2.1900863352  W2        307             0.0000000000
       922       308  TIP3      OH2           -21.6786505720      -52.5455724159      -14.7437063352  W2        308             0.0000000000
       923       308  TIP3      H1            -22.2330205720      -52.9417724159      -15.4159563352  W2        308             0.0000000000
       924       308  TIP3      H2            -21.5782905720      -51.6350524159      -15.0213763352  W2        308             0.0000000000
       925       309  TIP3      OH2           -21.7154505720      -46.7454024159       -1.9065563352  W2        309             0.0000000000
       926       309  TIP3      H1            -22.5666005720      -46.5070224159       -2.2739163352  W2        309             0.0000000000
       927       309  TIP3      H2            -21.1251105720      -46.7620824159       -2.6598463352  W2        309             0.0000000000
       928       310  TIP3      OH2           -23.3834805720      -43.7595324159      -14.2784963352  W2        310             0.0000000000
       929       310  TIP3      H1            -23.7563705720      -44.5851524159      -13.9694363352  W2        310             0.0000000000
       930       310  TIP3      H2            -23.1061305720      -43.9425924159      -15.1761563352  W2        310             0.0000000000
       931       311  TIP3      OH2           -26.2230905720      -48.9515824159       -7.2573063352  W2        311             0.0000000000
       932       311  TIP3      H1            -27.1514005720      -49.1833924159       -7.2843763352  W2        311             0.0000000000
       933       311  TIP3      H2            -25.7719805720      -49.7286024159       -7.5874263352  W2        311             0.0000000000
       934       312  TIP3      OH2           -33.6797805720      -44.6234224159      -11.1244363352  W2        312             0.0000000000
       935       312  TIP3      H1            -33.1525605720      -43.8499824159      -11.3245563352  W2        312             0.0000000000
       936       312  TIP3      H2            -34.5599305720      -44.3985024159      -11.4260363352  W2        312             0.0000000000
       937       313  TIP3      OH2           -37.9250105720      -49.7610124159      -16.5371963352  W2        313             0.0000000000
       938       313  TIP3      H1            -37.3090205720      -49.1342924159      -16.1577163352  W2        313             0.0000000000
       939       313  TIP3      H2            -38.7867505720      -49.4450324159      -16.2655463352  W2        313             0.0000000000
       940       314  TIP3      OH2           -32.2525505720      -46.9604324159      -11.5480063352  W2        314             0.0000000000
       941       314  TIP3      H1            -32.4935505720      -46.0349924159      -11.5064763352  W2        314             0.0000000000
       942       314  TIP3      H2            -32.9931905720      -47.4193024159      -11.1516163352  W2        314             0.0000000000
       943       315  TIP3      OH2           -31.7378905720      -42.8110724159       -5.2328963352  W2        315             0.0000000000
       944       315  TIP3      H1            -31.3754205720      -41.9565124159       -5.4664563352  W2        315             0.0000000000
       945       315  TIP3      H2            -31.2063705720      -43.1029124159       -4.4922663352  W2        315             0.0000000000
       946       316  TIP3      OH2           -33.5694705720      -41.9386724159      -12.0027863352  W2        316             0.0000000000
       947       316  TIP3      H1            -34.5194205720      -41.8329324159      -11.9514563352  W2        316             0.0000000000
       948       316  TIP3      H2            -33.2176605720      -41.1179324159      -11.6580363352  W2        316             0.0000000000
       949       317  TIP3      OH2           -28.1938105720      -46.7120024159       -5.5323363352  W2        317             0.0000000000
       950       317  TIP3      H1            -28.6196805720      -46.9398324159       -4.7059363352  W2        317             0.0000000000
       951       317  TIP3      H2            -27.6132305720      -47.4508224159       -5.7148063352  W2        317             0.0000000000
       952       318  TIP3      OH2           -25.9909205720      -45.7829524159      -16.4584363352  W2        318             0.0000000000
       953       318  TIP3      H1            -25.6376105720      -46.1629724159      -15.6540863352  W2        318             0.0000000000
       954       318  TIP3      H2            -26.9395705720      -45.8764724159      -16.3715063352  W2        318             0.0000000000
       955       319  TIP3      OH2           -25.5353905720      -42.1600524159       -3.0628563352  W2        319             0.0000000000
       956       319  TIP3      H1            -26.1370705720      -42.7157624159       -3.5582263352  W2        319             0.0000000000
       957       319  TIP3      H2            -25.2540205720      -41.4930724159       -3.6891163352  W2        319             0.0000000000
       958       320  TIP3      OH2           -21.4874805720      -41.3037024159      -16.2574163352  W2        320             0.0000000000
       959       320  TIP3      H1            -20.7436905720      -40.7176524159      -16.3972563352  W2        320             0.0000000000
       960       320  TIP3      H2            -22.1816705720      -40.7351224159      -15.9241763352  W2        320             0.0000000000
       961       321  TIP3      OH2           -37.4128005720      -54.9272824159       -3.6555963352  W2        321             0.0000000000
       962       321  TIP3      H1            -38.3055705720      -54.5887424159       -3.7231963352  W2        321             0.0000000000
       963       321  TIP3      H2            -37.5115205720      -55.7826724159       -3.2375163352  W2        321             0.0000000000
       964       322  TIP3      OH2           -25.1249905720      -47.1107524159      -14.2316463352  W2        322             0.0000000000
       965       322  TIP3      H1            -25.4022305720      -47.8388224159      -13.6755363352  W2        322             0.0000000000
       966       322  TIP3      H2            -24.1976905720      -46.9915524159      -14.0263863352  W2        322             0.0000000000
       967       323  TIP3      OH2           -37.7616005720      -43.1228424159       -5.2206563352  W2        323             0.0000000000
       968       323  TIP3      H1            -37.5445705720      -44.0546024159       -5.2516863352  W2        323             0.0000000000
       969       323  TIP3      H2            -37.5152505720      -42.8483424159       -4.3373763352  W2        323             0.0000000000
       970       324  TIP3      OH2           -31.9001405720      -44.6713424159      -18.0114363352  W2        324             0.0000000000
       971       324  TIP3      H1            -31.6611605720      -45.4195324159      -18.5585463352  W2        324             0.0000000000
       972       324  TIP3      H2            -32.1690105720      -45.0591724159      -17.1786563352  W2        324             0.0000000000
       973       325  TIP3      OH2           -32.9630805720      -45.1009624159      -15.5551763352  W2        325             0.0000000000
       974       325  TIP3      H1            -32.8162805720      -45.6209824159      -14.7650863352  W2        325             0.0000000000
       975       325  TIP3      H2            -32.9659105720      -44.1942024159      -15.2485863352  W2        325             0.0000000000
       976       326  TIP3      OH2           -36.5099705720      -47.8486324159      -15.0446363352  W2        326             0.0000000000
       977       326  TIP3      H1            -37.1960405720      -47.4963824159      -14.4776663352  W2        326             0.0000000000
       978       326  TIP3      H2            -35.9871805720      -47.0856724159      -15.2912063352  W2        326             0.0000000000
       979       327  TIP3      OH2           -28.6784605720      -55.1862524159       -4.7657363352  W2        327             0.0000000000
       980       327  TIP3      H1            -27.9796705720      -55.1123824159       -4.1157663352  W2        327             0.0000000000
       981       327  TIP3      H2            -29.0593205720      -56.0507524159       -4.6114463352  W2        327             0.0000000000
       982       328  TIP3      OH2           -27.8939705720      -55.5340824159      -13.6685063352  W2        328             0.0000000000
       983       328  TIP3      H1            -27.6741405720      -55.0625424159      -14.4719663352  W2        328             0.0000000000
       984       328  TIP3      H2            -27.3355705720      -55.1398224159      -12.9984463352  W2        328             0.0000000000
       985       329  TIP3      OH2           -30.2253605720      -43.4036024159      -14.8057563352  W2        329             0.0000000000
       986       329  TIP3      H1            -31.0417505720      -42.9066324159      -14.7533263352  W2        329             0.0000000000
       987       329  TIP3      H2            -29.6957305720      -42.9282524159      -15.4458763352  W2        329             0.0000000000
       988       330  TIP3      OH2           -30.6939805720      -53.8062024159      -12.8336663352  W2        330             0.0000000000
       989       330  TIP3      H1            -29.8817205720      -53.3018824159      -12.7874963352  W2        330             0.0000000000
       990       330  TIP3      H2            -30.9386805720      -53.9512324159      -11.9197063352  W2        330             0.0000000000
       991       331  TIP3      OH2           -30.1583405720      -52.8199324159       -3.6490063352  W2        331             0.0000000000
       992       331  TIP3      H1            -30.0393105720      -52.2463924159       -2.8919663352  W2        331             0.0000000000
       993       331  TIP3      H2            -29.5028805720      -53.5079924159       -3.5342263352  W2        331             0.0000000000
       994       332  TIP3      OH2           -29.8103105720      -56.7249024159      -11.8955563352  W2        332             0.0000000000
       995       332  TIP3      H1            -30.1569605720      -56.1078424159      -11.2511263352  W2        332             0.0000000000
       996       332  TIP3      H2            -29.1516205720      -56.2243324159      -12.3770063352  W2        332             0.0000000000
       997       333  TIP3      OH2           -32.8870505720      -42.3598824159      -14.8240663352  W2        333             0.0000000000
       998       333  TIP3      H1            -32.7261805720      -41.5601324159      -15.3248063352  W2        333             0.0000000000
       999       333  TIP3      H2            -33.0842705720      -42.0532824159      -13.9390063352  W2        333             0.0000000000
      1000       334  TIP3      OH2           -34.1526105720      -55.6619624159      -15.2083063352  W2        334             0.0000000000
      1001       334  TIP3      H1            -34.2361305720      -54.7736524159      -14.8616663352  W2        334             0.0000000000
      1002       334  TIP3      H2            -33.2625805720      -55.9272924159      -14.9766263352  W2        334             0.0000000000
      1003       335  TIP3      OH2           -23.9537605720      -54.9129024159       -2.8140363352  W2        335             0.0000000000
      1004       335  TIP3      H1            -24.8701805720      -54.6507324159       -2.9016663352  W2        335             0.0000000000
      1005       335  TIP3      H2            -23.6182605720      -54.9160024159       -3.7105063352  W2        335             0.0000000000
      1006       336  TIP3      OH2           -25.3516605720      -51.1628024159       -8.7183063352  W2        336             0.0000000000
      1007       336  TIP3      H1            -26.1492205720      -51.5777824159       -9.0468063352  W2        336             0.0000000000
      1008       336  TIP3      H2            -24.9065505720      -51.8534324159       -8.2272563352  W2        336             0.0000000000
      1009       337  TIP3      OH2           -35.8940805720      -45.2347424159      -16.1478563352  W2        337             0.0000000000
      1010       337  TIP3      H1            -35.3019305720      -44.5352624159      -15.8716163352  W2        337             0.0000000000
      1011       337  TIP3      H2            -35.4347805720      -45.6677924159      -16.8673963352  W2        337             0.0000000000
      1012       338  TIP3      OH2           -37.5781605720      -52.5704424159      -17.0319163352  W2        338             0.0000000000
      1013       338  TIP3      H1            -37.6229005720      -51.6311324159      -16.8532163352  W2        338             0.0000000000
      1014       338  TIP3      H2            -38.4658405720      -52.8059524159      -17.3017063352  W2        338             0.0000000000
      1015       339  TIP3      OH2           -24.2652005720      -41.9065524159       -7.0959563352  W2        339             0.0000000000
      1016       339  TIP3      H1            -24.4207705720      -41.2281124159       -7.7530263352  W2        339             0.0000000000
      1017       339  TIP3      H2            -23.3325605720      -41.8346224159       -6.8928963352  W2        339             0.0000000000
      1018       340  TIP3      OH2           -36.7699605720      -57.7887824159       -8.3588163352  W2        340             0.0000000000
      1019       340  TIP3      H1            -36.9989805720      -57.7295324159       -9.2863163352  W2        340             0.0000000000
      1020       340  TIP3      H2            -37.2126205720      -58.5802324159       -8.0524063352  W2        340             0.0000000000
      1021       341  TIP3      OH2           -37.8396305720      -43.8480724159      -12.1982363352  W2        341             0.0000000000
      1022       341  TIP3      H1            -38.6717705720      -43.3758024159      -12.1710963352  W2        341             0.0000000000
      1023       341  TIP3      H2            -37.2938005720      -43.3383124159      -12.7969263352  W2        341             0.0000000000
      1024       342  TIP3      OH2           -38.5512605720      -41.2357024159       -0.8684363352  W2        342             0.0000000000
      1025       342  TIP3      H1            -38.0110405720      -41.4523024159       -0.1085163352  W2        342             0.0000000000
      1026       342  TIP3      H2            -39.0324605720      -42.0411024159       -1.0581863352  W2        342             0.0000000000
      1027       343  TIP3      OH2           -33.9539205720      -42.3162624159        0.7519836648  W2        343             0.0000000000
      1028       343  TIP3      H1            -33.1862005720      -42.7751824159        1.0929036648  W2        343             0.0000000000
      1029       343  TIP3      H2            -33.9753005720      -42.5422824159       -0.1778963352  W2        343             0.0000000000
      1030       344  TIP3      OH2           -29.8619605720      -42.8082024159      -17.8728363352  W2        344             0.0000000000
      1031       344  TIP3      H1            -30.5058605720      -43.4393424159      -17.5514663352  W2        344             0.0000000000
      1032       344  TIP3      H2            -29.1001305720      -43.3394024159      -18.1044863352  W2        344             0.0000000000
      1033       345  TIP3      OH2           -27.3770505720      -43.9361524159       -0.5188663352  W2        345             0.0000000000
      1034       345  TIP3      H1            -27.7281005720      -44.7928524159       -0.2758263352  W2        345             0.0000000000
      1035       345  TIP3      H2            -26.6507305720      -43.7934824159        0.0880336648  W2        345             0.0000000000
      1036       346  TIP3      OH2           -25.2576705720      -42.9912124159      -17.6390363352  W2        346             0.0000000000
      1037       346  TIP3      H1            -24.9746305720      -43.7856924159      -17.1863463352  W2        346             0.0000000000
      1038       346  TIP3      H2            -24.5178805720      -42.7581124159      -18.1999263352  W2        346             0.0000000000
      1039       347  TIP3      OH2           -38.6443105720      -47.4252924159        0.0859936648  W2        347             0.0000000000
      1040       347  TIP3      H1            -38.5002605720      -48.3272224159       -0.2003363352  W2        347             0.0000000000
      1041       347  TIP3      H2            -39.4165705720      -47.1390824159       -0.4017763352  W2        347             0.0000000000
      1042       348  TIP3      OH2           -34.3029405720      -47.0817224159      -17.7815463352  W2        348             0.0000000000
      1043       348  TIP3      H1            -34.2385305720      -47.8757624159      -17.2509063352  W2        348             0.0000000000
      1044       348  TIP3      H2            -33.6500205720      -47.2004424159      -18.4713463352  W2        348             0.0000000000
      1045       349  TIP3      OH2           -31.9887005720      -47.4554824159       -0.4813663352  W2        349             0.0000000000
      1046       349  TIP3      H1            -32.3173205720      -47.1846724159       -1.3386263352  W2        349             0.0000000000
      1047       349  TIP3      H2            -31.8368805720      -48.3965024159       -0.5688663352  W2        349             0.0000000000
      1048       350  TIP3      OH2           -28.9506005720      -46.0345524159      -18.0457463352  W2        350             0.0000000000
      1049       350  TIP3      H1            -29.2191905720      -45.8543424159      -17.1448563352  W2        350             0.0000000000
      1050       350  TIP3      H2            -29.1570405720      -46.9599324159      -18.1771663352  W2        350             0.0000000000
      1051       351  TIP3      OH2           -26.2541805720      -47.5397524159       -3.0981363352  W2        351             0.0000000000
      1052       351  TIP3      H1            -25.5087005720      -46.9513824159       -3.2177363352  W2        351             0.0000000000
      1053       351  TIP3      H2            -27.0115005720      -46.9577824159       -3.0348263352  W2        351             0.0000000000
      1054       352  TIP3      OH2           -37.8116605720      -50.2249624159       -0.4940763352  W2        352             0.0000000000
      1055       352  TIP3      H1            -37.4035405720      -51.0823024159       -0.6150163352  W2        352             0.0000000000
      1056       352  TIP3      H2            -38.0719005720      -50.2108324159        0.4269536648  W2        352             0.0000000000
      1057       353  TIP3      OH2           -33.1535605720      -49.1091024159      -15.4757463352  W2        353             0.0000000000
      1058       353  TIP3      H1            -33.6133605720      -49.5932724159      -14.7898963352  W2        353             0.0000000000
      1059       353  TIP3      H2            -32.8986905720      -49.7775624159      -16.1116963352  W2        353             0.0000000000
      1060       354  TIP3      OH2           -33.8646305720      -51.2163924159       -3.1197863352  W2        354             0.0000000000
      1061       354  TIP3      H1            -34.4830205720      -50.5417324159       -2.8393163352  W2        354             0.0000000000
      1062       354  TIP3      H2            -33.5205105720      -50.8950024159       -3.9531663352  W2        354             0.0000000000
      1063       355  TIP3      OH2           -32.0825205720      -50.8659224159      -17.2134263352  W2        355             0.0000000000
      1064       355  TIP3      H1            -32.2630205720      -51.0208024159      -18.1405963352  W2        355             0.0000000000
      1065       355  TIP3      H2            -31.1324705720      -50.7580524159      -17.1686363352  W2        355             0.0000000000
      1066       356  TIP3      OH2           -28.8448105720      -48.7448624159        0.1576936648  W2        356             0.0000000000
      1067       356  TIP3      H1            -27.8916905720      -48.6609524159        0.1302936648  W2        356             0.0000000000
      1068       356  TIP3      H2            -29.0053505720      -49.4566824159        0.7771836648  W2        356             0.0000000000
      1069       357  TIP3      OH2           -22.6926905720      -48.5115024159      -17.7676163352  W2        357             0.0000000000
      1070       357  TIP3      H1            -22.9662105720      -48.9359524159      -18.5807863352  W2        357             0.0000000000
      1071       357  TIP3      H2            -22.6532805720      -47.5800524159      -17.9845763352  W2        357             0.0000000000
      1072       358  TIP3      OH2           -33.5252605720      -53.8613124159       -2.0374763352  W2        358             0.0000000000
      1073       358  TIP3      H1            -33.3751705720      -54.5901824159       -2.6395063352  W2        358             0.0000000000
      1074       358  TIP3      H2            -33.5230205720      -53.0841424159       -2.5962563352  W2        358             0.0000000000
      1075       359  TIP3      OH2           -33.1126905720      -55.4917324159       -4.5447363352  W2        359             0.0000000000
      1076       359  TIP3      H1            -32.5769405720      -55.0400624159       -5.1968063352  W2        359             0.0000000000
      1077       359  TIP3      H2            -33.9647305720      -55.5997524159       -4.9673263352  W2        359             0.0000000000
      1078       360  TIP3      OH2           -31.5308505720      -50.0521124159       -4.3052163352  W2        360             0.0000000000
      1079       360  TIP3      H1            -30.7803705720      -50.2083624159       -4.8784363352  W2        360             0.0000000000
      1080       360  TIP3      H2            -31.8700205720      -49.2004524159       -4.5806663352  W2        360             0.0000000000
      1081       361  TIP3      OH2           -27.1152305720      -52.2369324159        0.7233136648  W2        361             0.0000000000
      1082       361  TIP3      H1            -26.9231005720      -53.1679924159        0.6117636648  W2        361             0.0000000000
      1083       361  TIP3      H2            -26.2576005720      -51.8119824159        0.7128536648  W2        361             0.0000000000
      1084       362  TIP3      OH2           -25.7985105720      -49.4484124159       -1.1994163352  W2        362             0.0000000000
      1085       362  TIP3      H1            -26.0800105720      -48.7389524159       -1.7770363352  W2        362             0.0000000000
      1086       362  TIP3      H2            -24.8560805720      -49.5211124159       -1.3502963352  W2        362             0.0000000000
      1087       363  TIP3      OH2           -35.0466305720      -52.6629624159       -0.1259163352  W2        363             0.0000000000
      1088       363  TIP3      H1            -35.8137305720      -53.1954824159       -0.3361563352  W2        363             0.0000000000
      1089       363  TIP3      H2            -34.3677305720      -52.9729224159       -0.7252863352  W2        363             0.0000000000
      1090       364  TIP3      OH2           -32.3071405720      -58.0351624159       -4.1133763352  W2        364             0.0000000000
      1091       364  TIP3      H1            -32.4051805720      -57.0888424159       -4.2187563352  W2        364             0.0000000000
      1092       364  TIP3      H2            -33.0495205720      -58.4077824159       -4.5890263352  W2        364             0.0000000000
      1093       365  TIP3      OH2           -31.0430905720      -53.7136224159       -0.5495363352  W2        365             0.0000000000
      1094       365  TIP3      H1            -31.2785505720      -53.9329524159        0.3519536648  W2        365             0.0000000000
      1095       365  TIP3      H2            -31.8264005720      -53.9205024159       -1.0592863352  W2        365             0.0000000000
      1096       366  TIP3      OH2           -28.3274305720      -54.5862724159       -1.4741863352  W2        366             0.0000000000
      1097       366  TIP3      H1            -29.2748905720      -54.5543024159       -1.3418563352  W2        366             0.0000000000
      1098       366  TIP3      H2            -28.0147605720      -55.2115624159       -0.8203663352  W2        366             0.0000000000
      1099       367  TIP3      OH2           -26.6932805720      -55.9521624159        0.5310036648  W2        367             0.0000000000
      1100       367  TIP3      H1            -26.7901005720      -56.9044324159        0.5251936648  W2        367             0.0000000000
      1101       367  TIP3      H2            -27.0149705720      -55.6834824159        1.3915536648  W2        367             0.0000000000
      1102       368  TIP3      OH2           -36.8663505720      -54.7425824159       -0.4214463352  W2        368             0.0000000000
      1103       368  TIP3      H1            -36.6546105720      -55.4489724159       -1.0316963352  W2        368             0.0000000000
      1104       368  TIP3      H2            -36.9776005720      -55.1799824159        0.4226736648  W2        368             0.0000000000
      1105       369  TIP3      OH2           -32.0853305720      -58.7414224159       -1.4420963352  W2        369             0.0000000000
      1106       369  TIP3      H1            -31.3734905720      -59.3812024159       -1.4561863352  W2        369             0.0000000000
      1107       369  TIP3      H2            -32.1862905720      -58.4745924159       -2.3557863352  W2        369             0.0000000000
      1108       370  TIP3      OH2           -31.7315805720      -57.0585824159        0.6115336648  W2        370             0.0000000000
      1109       370  TIP3      H1            -31.8633605720      -57.5342024159       -0.2086163352  W2        370             0.0000000000
      1110       370  TIP3      H2            -32.3308405720      -56.3142224159        0.5562436648  W2        370             0.0000000000
      1111       371  TIP3      OH2           -32.1853505720      -40.1755524159      -16.2120663352  W2        371             0.0000000000
      1112       371  TIP3      H1            -31.2522805720      -40.0176824159      -16.0682263352  W2        371             0.0000000000
      1113       371  TIP3      H2            -32.4494705720      -39.5002524159      -16.8369163352  W2        371             0.0000000000
      1114       372  TIP3      OH2           -38.6168605720      -45.5391724159      -16.7292563352  W2        372             0.0000000000
      1115       372  TIP3      H1            -37.7029405720      -45.4602824159      -16.4558663352  W2        372             0.0000000000
      1116       372  TIP3      H2            -38.6095505720      -46.2262124159      -17.3956963352  W2        372             0.0000000000
      1117       373  TIP3      OH2           -39.9678005720      -40.1463224159      -11.6518663352  W2        373             0.0000000000
      1118       373  TIP3      H1            -40.6150905720      -40.6081524159      -12.1847463352  W2        373             0.0000000000
      1119       373  TIP3      H2            -39.6133405720      -40.8179924159      -11.0692463352  W2        373             0.0000000000
      1120       374  TIP3      OH2           -39.0978805720      -42.0656224159       -9.8472463352  W2        374             0.0000000000
      1121       374  TIP3      H1            -39.4322005720      -42.9458924159       -9.6752263352  W2        374             0.0000000000
      1122       374  TIP3      H2            -38.8756405720      -41.7201224159       -8.9826863352  W2        374             0.0000000000
      1123       375  TIP3      OH2           -21.5494005720      -41.2559824159       -6.8667663352  W2        375             0.0000000000
      1124       375  TIP3      H1            -21.5707305720      -41.0711424159       -5.9278263352  W2        375             0.0000000000
      1125       375  TIP3      H2            -20.8587805720      -40.6875824159       -7.2076263352  W2        375             0.0000000000
      1126       376  TIP3      OH2           -21.9861105720      -41.6888724159       -3.9448563352  W2        376             0.0000000000
      1127       376  TIP3      H1            -22.4732405720      -42.4244624159       -4.3161163352  W2        376             0.0000000000
      1128       376  TIP3      H2            -21.4368405720      -42.0824824159       -3.2669163352  W2        376             0.0000000000
      1129       377  TIP3      OH2           -23.5353805720      -45.8990624159        0.6931736648  W2        377             0.0000000000
      1130       377  TIP3      H1            -24.4012705720      -46.0040924159        1.0874036648  W2        377             0.0000000000
      1131       377  TIP3      H2            -23.1587905720      -45.1407324159        1.1396436648  W2        377             0.0000000000
      1132       378  TIP3      OH2           -22.2344105720      -47.6426924159      -13.7925763352  W2        378             0.0000000000
      1133       378  TIP3      H1            -21.3842705720      -47.2216024159      -13.6654163352  W2        378             0.0000000000
      1134       378  TIP3      H2            -22.2289005720      -48.3826824159      -13.1854363352  W2        378             0.0000000000
      1135       379  TIP3      OH2           -21.8398505720      -49.5889524159      -11.9690063352  W2        379             0.0000000000
      1136       379  TIP3      H1            -22.5663905720      -50.0686924159      -11.5712463352  W2        379             0.0000000000
      1137       379  TIP3      H2            -21.2585205720      -49.3834824159      -11.2368463352  W2        379             0.0000000000
      1138       380  TIP3      OH2           -22.0807305720      -46.8042024159       -7.0212463352  W2        380             0.0000000000
      1139       380  TIP3      H1            -21.2473105720      -47.1822024159       -7.3018863352  W2        380             0.0000000000
      1140       380  TIP3      H2            -21.9687005720      -45.8610824159       -7.1403363352  W2        380             0.0000000000
      1141       381  TIP3      OH2           -23.5945005720      -43.9264524159       -4.7144063352  W2        381             0.0000000000
      1142       381  TIP3      H1            -24.2419705720      -43.6013024159       -4.0888863352  W2        381             0.0000000000
      1143       381  TIP3      H2            -24.1121005720      -44.3666824159       -5.3885763352  W2        381             0.0000000000
      1144       382  TIP3      OH2           -21.5715405720      -49.6881024159      -15.5778763352  W2        382             0.0000000000
      1145       382  TIP3      H1            -22.0934305720      -49.3316924159      -16.2967863352  W2        382             0.0000000000
      1146       382  TIP3      H2            -21.6046205720      -49.0133224159      -14.8997863352  W2        382             0.0000000000
      1147       383  TIP3      OH2           -23.2226405720      -52.4485424159      -17.0271663352  W2        383             0.0000000000
      1148       383  TIP3      H1            -23.1262005720      -51.7818424159      -17.7071963352  W2        383             0.0000000000
      1149       383  TIP3      H2            -23.3626805720      -53.2639124159      -17.5086163352  W2        383             0.0000000000
      1150       384  TIP3      OH2           -24.0531705720      -51.0683024159      -11.4061363352  W2        384             0.0000000000
      1151       384  TIP3      H1            -24.2032905720      -52.0134424159      -11.4263563352  W2        384             0.0000000000
      1152       384  TIP3      H2            -24.4067205720      -50.7871624159      -10.5622263352  W2        384             0.0000000000
      1153       385  TIP3      OH2           -39.0179305720      -48.9900824159       -7.3957563352  W2        385             0.0000000000
      1154       385  TIP3      H1            -38.8336405720      -49.0719124159       -8.3314663352  W2        385             0.0000000000
      1155       385  TIP3      H2            -38.1686405720      -49.1143824159       -6.9721163352  W2        385             0.0000000000
      1156       386  TIP3      OH2           -23.1968805720      -49.0979724159       -1.7673063352  W2        386             0.0000000000
      1157       386  TIP3      H1            -22.6141505720      -49.8327424159       -1.5755863352  W2        386             0.0000000000
      1158       386  TIP3      H2            -22.6329505720      -48.3259424159       -1.7207263352  W2        386             0.0000000000
      1159       387  TIP3      OH2           -21.7001705720      -51.1953924159       -1.0827663352  W2        387             0.0000000000
      1160       387  TIP3      H1            -22.5635005720      -51.5741824159       -1.2482963352  W2        387             0.0000000000
      1161       387  TIP3      H2            -21.0958005720      -51.9339124159       -1.1571863352  W2        387             0.0000000000
      1162       388  TIP3      OH2           -23.9752605720      -55.0405624159      -17.9096163352  W2        388             0.0000000000
      1163       388  TIP3      H1            -23.3646805720      -55.4118824159      -17.2727963352  W2        388             0.0000000000
      1164       388  TIP3      H2            -24.8121105720      -55.4618724159      -17.7136163352  W2        388             0.0000000000
      1165       389  TIP3      OH2           -24.3426905720      -53.4857224159      -12.9436263352  W2        389             0.0000000000
      1166       389  TIP3      H1            -24.0629805720      -54.3926824159      -12.8194563352  W2        389             0.0000000000
      1167       389  TIP3      H2            -23.5835205720      -53.0515724159      -13.3327063352  W2        389             0.0000000000
      1168       390  TIP3      OH2           -23.7308605720      -52.9039824159       -7.5077363352  W2        390             0.0000000000
      1169       390  TIP3      H1            -22.7980605720      -52.6919924159       -7.5421363352  W2        390             0.0000000000
      1170       390  TIP3      H2            -23.9661105720      -52.8027724159       -6.5854363352  W2        390             0.0000000000
      1171       391  TIP3      OH2           -23.7016705720      -52.1674524159       -4.7317963352  W2        391             0.0000000000
      1172       391  TIP3      H1            -24.5445405720      -51.8994124159       -4.3658163352  W2        391             0.0000000000
      1173       391  TIP3      H2            -23.2592405720      -51.3452624159       -4.9426863352  W2        391             0.0000000000
      1174       392  TIP3      OH2           -39.4204505720      -53.7195824159       -1.2548763352  W2        392             0.0000000000
      1175       392  TIP3      H1            -38.5009605720      -53.8417524159       -1.0185663352  W2        392             0.0000000000
      1176       392  TIP3      H2            -39.8700005720      -54.4696124159       -0.8655263352  W2        392             0.0000000000
      1177       393  TIP3      OH2           -21.4185105720      -58.1874324159        0.6217036648  W2        393             0.0000000000
      1178       393  TIP3      H1            -21.0688105720      -58.8410824159        0.0161736648  W2        393             0.0000000000
      1179       393  TIP3      H2            -21.2715605720      -57.3500224159        0.1819636648  W2        393             0.0000000000
      1180       394  TIP3      OH2           -23.7292105720      -56.2227924159      -12.8954263352  W2        394             0.0000000000
      1181       394  TIP3      H1            -23.5467105720      -56.6716424159      -12.0699263352  W2        394             0.0000000000
      1182       394  TIP3      H2            -24.3289205720      -56.8073524159      -13.3589663352  W2        394             0.0000000000
      1183       395  TIP3      OH2           -38.1992005720      -55.4074224159       -8.3635863352  W2        395             0.0000000000
      1184       395  TIP3      H1            -37.7540405720      -56.1991724159       -8.0616163352  W2        395             0.0000000000
      1185       395  TIP3      H2            -37.7329005720      -54.6909024159       -7.9330263352  W2        395             0.0000000000
      1186       396  TIP3      OH2           -39.8951705720      -52.4081224159       -7.2945663352  W2        396             0.0000000000
      1187       396  TIP3      H1            -39.4031905720      -52.6290724159       -8.0853663352  W2        396             0.0000000000
      1188       396  TIP3      H2            -39.5330805720      -51.5677824159       -7.0136163352  W2        396             0.0000000000
      1189       397  TIP3      OH2           -21.8987905720      -56.0779724159       -1.0291663352  W2        397             0.0000000000
      1190       397  TIP3      H1            -22.8162205720      -55.8072624159       -1.0648163352  W2        397             0.0000000000
      1191       397  TIP3      H2            -21.7758505720      -56.6131324159       -1.8131963352  W2        397             0.0000000000
      1192       398  TIP3      OH2           -21.8625905720      -56.1549824159      -16.3673963352  W2        398             0.0000000000
      1193       398  TIP3      H1            -21.4503305720      -56.8764124159      -16.8425963352  W2        398             0.0000000000
      1194       398  TIP3      H2            -21.1809405720      -55.4855224159      -16.3089663352  W2        398             0.0000000000
      1195       399  TIP3      OH2           -39.5815205720      -56.1502124159      -13.2403263352  W2        399             0.0000000000
      1196       399  TIP3      H1            -40.5066805720      -55.9415524159      -13.3697763352  W2        399             0.0000000000
      1197       399  TIP3      H2            -39.1275305720      -55.6661324159      -13.9300963352  W2        399             0.0000000000
      1198       400  TIP3      OH2           -24.8108005720      -41.1660424159      -11.2945863352  W2        400             0.0000000000
      1199       400  TIP3      H1            -24.1585105720      -41.5138324159      -11.9026763352  W2        400             0.0000000000
      1200       400  TIP3      H2            -24.3004205720      -40.6777224159      -10.6486163352  W2        400             0.0000000000
      1201       401  TIP3      OH2           -39.6179805720      -57.4123124159       -4.8960763352  W2        401             0.0000000000
      1202       401  TIP3      H1            -40.2829305720      -57.6582824159       -4.2529863352  W2        401             0.0000000000
      1203       401  TIP3      H2            -40.0608505720      -56.7902724159       -5.4732763352  W2        401             0.0000000000
      1204       402  TIP3      OH2           -37.4260505720      -44.2369024159       -0.7514963352  W2        402             0.0000000000
      1205       402  TIP3      H1            -38.2468005720      -44.0622524159       -1.2120263352  W2        402             0.0000000000
      1206       402  TIP3      H2            -37.6782705720      -44.3104324159        0.1689436648  W2        402             0.0000000000
      1207       403  TIP3      OH2           -34.4717605720      -43.2627824159       -4.4930963352  W2        403             0.0000000000
      1208       403  TIP3      H1            -34.8966505720      -42.4529324159       -4.7756363352  W2        403             0.0000000000
      1209       403  TIP3      H2            -33.5674805720      -43.1773724159       -4.7951163352  W2        403             0.0000000000
      1210       404  TIP3      OH2           -30.1606205720      -41.8637824159       -1.5337263352  W2        404             0.0000000000
      1211       404  TIP3      H1            -29.9758705720      -42.1971724159       -0.6556963352  W2        404             0.0000000000
      1212       404  TIP3      H2            -29.3141705720      -41.5539224159       -1.8558063352  W2        404             0.0000000000
      1213       405  TIP3      OH2           -27.8155805720      -40.5778924159       -2.2895863352  W2        405             0.0000000000
      1214       405  TIP3      H1            -27.1386905720      -41.2106624159       -2.5296663352  W2        405             0.0000000000
      1215       405  TIP3      H2            -27.4937005720      -40.1768424159       -1.4822563352  W2        405             0.0000000000
      1216       406  TIP3      OH2           -22.8982005720      -57.9883424159       -3.2100863352  W2        406             0.0000000000
      1217       406  TIP3      H1            -23.7108505720      -57.6633124159       -3.5976163352  W2        406             0.0000000000
      1218       406  TIP3      H2            -22.6653505720      -58.7484924159       -3.7431763352  W2        406             0.0000000000
      1219       407  TIP3      OH2           -37.0700905720      -40.0063924159       -4.4455663352  W2        407             0.0000000000
      1220       407  TIP3      H1            -37.7904505720      -39.5662924159       -4.8967963352  W2        407             0.0000000000
      1221       407  TIP3      H2            -37.4356905720      -40.2569224159       -3.5971663352  W2        407             0.0000000000
      1222       408  TIP3      OH2           -34.6028305720      -40.4060024159       -5.4158463352  W2        408             0.0000000000
      1223       408  TIP3      H1            -35.4676105720      -40.3341524159       -5.0118363352  W2        408             0.0000000000
      1224       408  TIP3      H2            -34.6579305720      -39.8592724159       -6.1995963352  W2        408             0.0000000000
      1225       409  TIP3      OH2           -29.8922705720      -40.5181124159       -6.2402463352  W2        409             0.0000000000
      1226       409  TIP3      H1            -30.3488705720      -39.9891424159       -6.8944063352  W2        409             0.0000000000
      1227       409  TIP3      H2            -29.7294705720      -39.9149724159       -5.5150163352  W2        409             0.0000000000
      1228       410  TIP3      OH2           -27.5646405720      -41.6401524159       -5.2952163352  W2        410             0.0000000000
      1229       410  TIP3      H1            -28.4692705720      -41.4751324159       -5.5610063352  W2        410             0.0000000000
      1230       410  TIP3      H2            -27.1357805720      -40.7869324159       -5.3608763352  W2        410             0.0000000000
      1231       411  TIP3      OH2           -24.9604505720      -40.0702424159       -5.0004363352  W2        411             0.0000000000
      1232       411  TIP3      H1            -25.1422505720      -39.1543524159       -5.2109463352  W2        411             0.0000000000
      1233       411  TIP3      H2            -24.7836705720      -40.4805324159       -5.8469763352  W2        411             0.0000000000
      1234       412  TIP3      OH2           -37.6552805720      -41.3831424159       -7.5353863352  W2        412             0.0000000000
      1235       412  TIP3      H1            -37.6736805720      -41.8086324159       -6.6781563352  W2        412             0.0000000000
      1236       412  TIP3      H2            -36.8504905720      -41.7016424159       -7.9441663352  W2        412             0.0000000000
      1237       413  TIP3      OH2           -35.5139705720      -42.6732724159       -8.8803963352  W2        413             0.0000000000
      1238       413  TIP3      H1            -35.7329005720      -43.5895324159       -8.7107963352  W2        413             0.0000000000
      1239       413  TIP3      H2            -34.6897505720      -42.5332324159       -8.4142563352  W2        413             0.0000000000
      1240       414  TIP3      OH2           -32.9767205720      -42.2033424159       -8.0315963352  W2        414             0.0000000000
      1241       414  TIP3      H1            -32.7641505720      -43.0914424159       -8.3185063352  W2        414             0.0000000000
      1242       414  TIP3      H2            -32.9122105720      -42.2375724159       -7.0771963352  W2        414             0.0000000000
      1243       415  TIP3      OH2           -29.4683505720      -56.5392824159       -8.8872663352  W2        415             0.0000000000
      1244       415  TIP3      H1            -30.1426705720      -57.1687224159       -8.6316863352  W2        415             0.0000000000
      1245       415  TIP3      H2            -28.9044305720      -57.0233924159       -9.4904763352  W2        415             0.0000000000
      1246       416  TIP3      OH2           -24.3256305720      -58.4318824159       -8.7745563352  W2        416             0.0000000000
      1247       416  TIP3      H1            -23.7218705720      -57.8843424159       -9.2764563352  W2        416             0.0000000000
      1248       416  TIP3      H2            -25.1954305720      -58.1128424159       -9.0151463352  W2        416             0.0000000000
      1249       417  TIP3      OH2           -22.5985905720      -57.2930124159      -10.4414663352  W2        417             0.0000000000
      1250       417  TIP3      H1            -21.9868405720      -57.8074424159      -10.9681063352  W2        417             0.0000000000
      1251       417  TIP3      H2            -22.2162505720      -56.4158024159      -10.4180263352  W2        417             0.0000000000
      1252       418  TIP3      OH2           -37.1416005720      -57.9052524159      -11.0652763352  W2        418             0.0000000000
      1253       418  TIP3      H1            -37.9186205720      -58.1397624159      -11.5726863352  W2        418             0.0000000000
      1254       418  TIP3      H2            -36.6112405720      -58.7020424159      -11.0564763352  W2        418             0.0000000000
      1255       419  TIP3      OH2           -38.3052605720      -58.1074424159      -15.2616663352  W2        419             0.0000000000
      1256       419  TIP3      H1            -37.8661905720      -57.4963924159      -15.8533163352  W2        419             0.0000000000
      1257       419  TIP3      H2            -38.9390205720      -57.5690324159      -14.7876663352  W2        419             0.0000000000
      1258       420  TIP3      OH2           -32.5623405720      -57.9785424159      -11.2519663352  W2        420             0.0000000000
      1259       420  TIP3      H1            -31.6880005720      -57.5901124159      -11.2815363352  W2        420             0.0000000000
      1260       420  TIP3      H2            -32.6982605720      -58.1937624159      -10.3292463352  W2        420             0.0000000000
      1261       421  TIP3      OH2           -27.0055005720      -57.9485624159       -9.6027963352  W2        421             0.0000000000
      1262       421  TIP3      H1            -26.9293405720      -57.8534024159      -10.5521963352  W2        421             0.0000000000
      1263       421  TIP3      H2            -27.2805805720      -58.8562724159       -9.4738863352  W2        421             0.0000000000
      1264       422  TIP3      OH2           -25.6522405720      -57.9227824159      -13.9102963352  W2        422             0.0000000000
      1265       422  TIP3      H1            -26.3551305720      -57.3078624159      -14.1201563352  W2        422             0.0000000000
      1266       422  TIP3      H2            -26.0971005720      -58.7601124159      -13.7792063352  W2        422             0.0000000000
      1267       423  TIP3      OH2           -38.4043105720      -42.1592224159      -14.3641563352  W2        423             0.0000000000
      1268       423  TIP3      H1            -39.0893205720      -42.1973324159      -15.0316463352  W2        423             0.0000000000
      1269       423  TIP3      H2            -38.4005905720      -41.2464624159      -14.0759463352  W2        423             0.0000000000
      1270       424  TIP3      OH2           -36.4443505720      -56.1912924159      -16.8192563352  W2        424             0.0000000000
      1271       424  TIP3      H1            -35.9530105720      -56.8210524159      -17.3467063352  W2        424             0.0000000000
      1272       424  TIP3      H2            -35.8207205720      -55.8953524159      -16.1561363352  W2        424             0.0000000000
      1273       425  TIP3      OH2           -31.4183405720      -55.8981424159      -14.3622063352  W2        425             0.0000000000
      1274       425  TIP3      H1            -31.2402105720      -56.5448224159      -13.6793463352  W2        425             0.0000000000
      1275       425  TIP3      H2            -31.4717205720      -55.0643724159      -13.8950963352  W2        425             0.0000000000
      1276       426  TIP3      OH2           -29.5399605720      -40.9497324159      -15.9665363352  W2        426             0.0000000000
      1277       426  TIP3      H1            -28.6739405720      -40.5829924159      -16.1447163352  W2        426             0.0000000000
      1278       426  TIP3      H2            -29.7866805720      -41.3889324159      -16.7804563352  W2        426             0.0000000000
      1279       427  TIP3      OH2           -22.8310005720      -41.3867024159      -13.2874263352  W2        427             0.0000000000
      1280       427  TIP3      H1            -23.0252905720      -42.1344924159      -13.8524663352  W2        427             0.0000000000
      1281       427  TIP3      H2            -22.8699905720      -40.6286924159      -13.8706363352  W2        427             0.0000000000
      1282       428  TIP3      OH2           -37.1838005720      -57.3910624159       -1.5476563352  W2        428             0.0000000000
      1283       428  TIP3      H1            -37.5499805720      -58.1568024159       -1.1051863352  W2        428             0.0000000000
      1284       428  TIP3      H2            -36.2709505720      -57.3620424159       -1.2611463352  W2        428             0.0000000000
      1285       429  TIP3      OH2           -35.2107205720      -58.0406224159       -0.0119463352  W2        429             0.0000000000
      1286       429  TIP3      H1            -34.3123605720      -58.3146024159       -0.1966063352  W2        429             0.0000000000
      1287       429  TIP3      H2            -35.5974105720      -58.7830224159        0.4523136648  W2        429             0.0000000000
      1288       430  TIP3      OH2           -36.5861905720      -41.2391424159      -17.3389463352  W2        430             0.0000000000
      1289       430  TIP3      H1            -36.8537305720      -40.9528524159      -16.4656363352  W2        430             0.0000000000
      1290       430  TIP3      H2            -35.8149305720      -41.7852224159      -17.1866963352  W2        430             0.0000000000
      1291       431  TIP3      OH2           -26.7894905720      -58.7080924159        0.1703336648  W2        431             0.0000000000
      1292       431  TIP3      H1            -26.7127705720      -59.1340224159        1.0241036648  W2        431             0.0000000000
      1293       431  TIP3      H2            -25.8958305720      -58.6946224159       -0.1723163352  W2        431             0.0000000000
      1294       432  TIP3      OH2           -23.6133805720      -42.6354624159       -1.1372463352  W2        432             0.0000000000
      1295       432  TIP3      H1            -24.3951905720      -42.8216624159       -1.6571863352  W2        432             0.0000000000
      1296       432  TIP3      H2            -23.6853905720      -41.7060324159       -0.9199963352  W2        432             0.0000000000
      1297       433  TIP3      OH2            -9.2073405720      -48.7490224159      -11.1065263352  W2        433             0.0000000000
      1298       433  TIP3      H1             -9.1182305720      -47.8052024159      -11.2388163352  W2        433             0.0000000000
      1299       433  TIP3      H2             -9.8455805720      -49.0243824159      -11.7645863352  W2        433             0.0000000000
      1300       434  TIP3      OH2           -10.2742105720      -49.4939524159       -7.6877063352  W2        434             0.0000000000
      1301       434  TIP3      H1            -10.3124605720      -50.1403224159       -6.9827463352  W2        434             0.0000000000
      1302       434  TIP3      H2            -10.5965605720      -49.9605124159       -8.4588363352  W2        434             0.0000000000
      1303       435  TIP3      OH2           -17.9057105720      -49.8797424159       -6.0947163352  W2        435             0.0000000000
      1304       435  TIP3      H1            -17.8645005720      -50.5054124159       -5.3714763352  W2        435             0.0000000000
      1305       435  TIP3      H2            -17.2029405720      -49.2558824159       -5.9126763352  W2        435             0.0000000000
      1306       436  TIP3      OH2            -6.5681905720      -46.5549124159       -9.3861963352  W2        436             0.0000000000
      1307       436  TIP3      H1             -7.0089205720      -47.2753124159       -8.9356363352  W2        436             0.0000000000
      1308       436  TIP3      H2             -6.5812205720      -45.8341924159       -8.7564263352  W2        436             0.0000000000
      1309       437  TIP3      OH2           -16.9824005720      -45.4298524159       -7.5598063352  W2        437             0.0000000000
      1310       437  TIP3      H1            -17.3518805720      -46.2318024159       -7.9293763352  W2        437             0.0000000000
      1311       437  TIP3      H2            -16.0412905720      -45.5983624159       -7.5134663352  W2        437             0.0000000000
      1312       438  TIP3      OH2           -20.3723505720      -51.7695924159      -12.1669263352  W2        438             0.0000000000
      1313       438  TIP3      H1            -20.8200105720      -50.9237224159      -12.1852763352  W2        438             0.0000000000
      1314       438  TIP3      H2            -20.9332305720      -52.3491724159      -12.6824163352  W2        438             0.0000000000
      1315       439  TIP3      OH2           -19.6617405720      -49.6076324159      -10.0411263352  W2        439             0.0000000000
      1316       439  TIP3      H1            -19.4483905720      -50.3774724159       -9.5138263352  W2        439             0.0000000000
      1317       439  TIP3      H2            -18.9239805720      -49.5179624159      -10.6443663352  W2        439             0.0000000000
      1318       440  TIP3      OH2            -9.4566405720      -41.4507424159       -9.1741563352  W2        440             0.0000000000
      1319       440  TIP3      H1             -8.8370005720      -42.1272724159       -9.4472363352  W2        440             0.0000000000
      1320       440  TIP3      H2             -9.6649005720      -41.6686624159       -8.2656663352  W2        440             0.0000000000
      1321       441  TIP3      OH2           -11.8847705720      -47.0618124159       -7.2816063352  W2        441             0.0000000000
      1322       441  TIP3      H1            -11.5809805720      -47.7476724159       -7.8761963352  W2        441             0.0000000000
      1323       441  TIP3      H2            -11.1633705720      -46.9429424159       -6.6638063352  W2        441             0.0000000000
      1324       442  TIP3      OH2            -3.2217905720      -55.4602824159       -6.4209863352  W2        442             0.0000000000
      1325       442  TIP3      H1             -3.1725705720      -54.8501624159       -5.6850763352  W2        442             0.0000000000
      1326       442  TIP3      H2             -2.7962805720      -54.9991924159       -7.1438763352  W2        442             0.0000000000
      1327       443  TIP3      OH2            -8.7440705720      -52.6675724159       -6.9541263352  W2        443             0.0000000000
      1328       443  TIP3      H1             -8.6014805720      -53.6138724159       -6.9339663352  W2        443             0.0000000000
      1329       443  TIP3      H2             -8.8501705720      -52.4605924159       -7.8826363352  W2        443             0.0000000000
      1330       444  TIP3      OH2           -15.5892405720      -54.5659324159       -9.6816463352  W2        444             0.0000000000
      1331       444  TIP3      H1            -15.5461305720      -53.7060824159      -10.1000163352  W2        444             0.0000000000
      1332       444  TIP3      H2            -16.0468305720      -55.1184624159      -10.3153263352  W2        444             0.0000000000
      1333       445  TIP3      OH2            -7.8669705720      -54.4353724159      -11.2808163352  W2        445             0.0000000000
      1334       445  TIP3      H1             -7.2205405720      -54.7640524159      -10.6560563352  W2        445             0.0000000000
      1335       445  TIP3      H2             -7.3570305720      -53.9174724159      -11.9036763352  W2        445             0.0000000000
      1336       446  TIP3      OH2           -18.9690905720      -52.1693524159       -8.9195063352  W2        446             0.0000000000
      1337       446  TIP3      H1            -18.3154305720      -52.7191824159       -8.4874963352  W2        446             0.0000000000
      1338       446  TIP3      H2            -18.9451605720      -52.4434524159       -9.8363063352  W2        446             0.0000000000
      1339       447  TIP3      OH2           -13.8126405720      -50.6192224159       -9.7043563352  W2        447             0.0000000000
      1340       447  TIP3      H1            -13.1965405720      -51.1456824159       -9.1949563352  W2        447             0.0000000000
      1341       447  TIP3      H2            -14.3987605720      -51.2593524159      -10.1079963352  W2        447             0.0000000000
      1342       448  TIP3      OH2            -2.8303305720      -53.9823624159       -4.1850063352  W2        448             0.0000000000
      1343       448  TIP3      H1             -3.5188705720      -53.3242924159       -4.2803463352  W2        448             0.0000000000
      1344       448  TIP3      H2             -2.8148705720      -54.1795724159       -3.2484663352  W2        448             0.0000000000
      1345       449  TIP3      OH2           -16.7790505720      -55.6480924159       -5.6075663352  W2        449             0.0000000000
      1346       449  TIP3      H1            -16.9978805720      -55.1180324159       -6.3739663352  W2        449             0.0000000000
      1347       449  TIP3      H2            -17.4469605720      -55.4215424159       -4.9604263352  W2        449             0.0000000000
      1348       450  TIP3      OH2            -9.4100705720      -46.1479824159      -12.0636563352  W2        450             0.0000000000
      1349       450  TIP3      H1             -9.7055605720      -46.4707524159      -12.9149663352  W2        450             0.0000000000
      1350       450  TIP3      H2             -9.7342905720      -45.2483124159      -12.0223963352  W2        450             0.0000000000
      1351       451  TIP3      OH2           -14.2099105720      -47.9725224159       -5.3201963352  W2        451             0.0000000000
      1352       451  TIP3      H1            -14.9500005720      -47.3743724159       -5.2166763352  W2        451             0.0000000000
      1353       451  TIP3      H2            -13.4959605720      -47.4185624159       -5.6358363352  W2        451             0.0000000000
      1354       452  TIP3      OH2            -6.1031305720      -55.1444424159       -9.3002263352  W2        452             0.0000000000
      1355       452  TIP3      H1             -6.3183305720      -55.9101024159       -8.7676263352  W2        452             0.0000000000
      1356       452  TIP3      H2             -5.4473905720      -54.6719824159       -8.7873763352  W2        452             0.0000000000
      1357       453  TIP3      OH2           -17.1853205720      -53.7559124159       -7.6553463352  W2        453             0.0000000000
      1358       453  TIP3      H1            -16.5716905720      -53.1231524159       -7.2821063352  W2        453             0.0000000000
      1359       453  TIP3      H2            -16.6732505720      -54.2284124159       -8.3116563352  W2        453             0.0000000000
      1360       454  TIP3      OH2           -15.8024805720      -46.0082224159       -4.5330463352  W2        454             0.0000000000
      1361       454  TIP3      H1            -15.8077205720      -45.1288724159       -4.9111163352  W2        454             0.0000000000
      1362       454  TIP3      H2            -16.6560705720      -46.0918124159       -4.1080563352  W2        454             0.0000000000
      1363       455  TIP3      OH2           -19.6813905720      -46.3374324159      -13.7511163352  W2        455             0.0000000000
      1364       455  TIP3      H1            -19.9533005720      -46.1083324159      -14.6398263352  W2        455             0.0000000000
      1365       455  TIP3      H2            -19.6358205720      -45.4995524159      -13.2905863352  W2        455             0.0000000000
      1366       456  TIP3      OH2            -6.0564205720      -44.7158424159       -7.0382663352  W2        456             0.0000000000
      1367       456  TIP3      H1             -6.9980505720      -44.6574524159       -6.8765763352  W2        456             0.0000000000
      1368       456  TIP3      H2             -5.7798105720      -43.8097924159       -7.1752963352  W2        456             0.0000000000
      1369       457  TIP3      OH2            -5.7557205720      -56.4293124159       -5.6208763352  W2        457             0.0000000000
      1370       457  TIP3      H1             -6.4918005720      -55.8186024159       -5.6587463352  W2        457             0.0000000000
      1371       457  TIP3      H2             -5.0723205720      -56.0144124159       -6.1472363352  W2        457             0.0000000000
      1372       458  TIP3      OH2           -12.7525805720      -58.3425824159       -8.1550763352  W2        458             0.0000000000
      1373       458  TIP3      H1            -12.8701605720      -59.2909824159       -8.2092463352  W2        458             0.0000000000
      1374       458  TIP3      H2            -13.6075705720      -58.0099724159       -7.8819663352  W2        458             0.0000000000
      1375       459  TIP3      OH2            -7.8043005720      -42.9344924159      -10.4131063352  W2        459             0.0000000000
      1376       459  TIP3      H1             -7.3790705720      -43.6417024159      -10.8981463352  W2        459             0.0000000000
      1377       459  TIP3      H2             -7.4873005720      -42.1332224159      -10.8298863352  W2        459             0.0000000000
      1378       460  TIP3      OH2            -6.6446505720      -45.0336424159      -11.9044463352  W2        460             0.0000000000
      1379       460  TIP3      H1             -6.9021705720      -45.7236324159      -12.5158563352  W2        460             0.0000000000
      1380       460  TIP3      H2             -6.5735705720      -45.4765224159      -11.0588563352  W2        460             0.0000000000
      1381       461  TIP3      OH2            -4.9586305720      -46.4669724159       -3.4270963352  W2        461             0.0000000000
      1382       461  TIP3      H1             -4.8190005720      -47.0587224159       -4.1663963352  W2        461             0.0000000000
      1383       461  TIP3      H2             -4.7913505720      -45.5943824159       -3.7832163352  W2        461             0.0000000000
      1384       462  TIP3      OH2           -10.4860905720      -49.5050224159      -13.6544963352  W2        462             0.0000000000
      1385       462  TIP3      H1            -11.1975405720      -48.9700524159      -14.0064463352  W2        462             0.0000000000
      1386       462  TIP3      H2             -9.7951305720      -49.4498124159      -14.3146063352  W2        462             0.0000000000
      1387       463  TIP3      OH2           -10.4321705720      -51.0475924159      -16.6159963352  W2        463             0.0000000000
      1388       463  TIP3      H1             -9.7311805720      -51.0249024159      -15.9645963352  W2        463             0.0000000000
      1389       463  TIP3      H2            -10.1298805720      -51.6756224159      -17.2720663352  W2        463             0.0000000000
      1390       464  TIP3      OH2            -3.1167005720      -50.1271724159       -5.3610563352  W2        464             0.0000000000
      1391       464  TIP3      H1             -3.7692905720      -49.4326124159       -5.2719663352  W2        464             0.0000000000
      1392       464  TIP3      H2             -2.6516705720      -49.9170824159       -6.1708963352  W2        464             0.0000000000
      1393       465  TIP3      OH2            -7.0803205720      -49.2956924159      -12.7029063352  W2        465             0.0000000000
      1394       465  TIP3      H1             -7.8122205720      -49.0673224159      -12.1298463352  W2        465             0.0000000000
      1395       465  TIP3      H2             -6.6331005720      -50.0094224159      -12.2481563352  W2        465             0.0000000000
      1396       466  TIP3      OH2            -7.1829705720      -51.1214324159       -3.6352063352  W2        466             0.0000000000
      1397       466  TIP3      H1             -7.1030605720      -50.3579924159       -3.0633563352  W2        466             0.0000000000
      1398       466  TIP3      H2             -7.7842005720      -50.8421924159       -4.3256963352  W2        466             0.0000000000
      1399       467  TIP3      OH2           -15.4349505720      -48.6650724159      -10.8204063352  W2        467             0.0000000000
      1400       467  TIP3      H1            -15.7654305720      -49.0357324159      -11.6387063352  W2        467             0.0000000000
      1401       467  TIP3      H2            -14.8465405720      -49.3356724159      -10.4735763352  W2        467             0.0000000000
      1402       468  TIP3      OH2           -14.0682005720      -45.2370124159       -8.1391863352  W2        468             0.0000000000
      1403       468  TIP3      H1            -14.1630705720      -45.8157024159       -8.8957263352  W2        468             0.0000000000
      1404       468  TIP3      H2            -13.3388405720      -45.6084424159       -7.6429063352  W2        468             0.0000000000
      1405       469  TIP3      OH2           -15.0684005720      -49.8965124159       -7.1869063352  W2        469             0.0000000000
      1406       469  TIP3      H1            -14.5031505720      -49.7750924159       -7.9497863352  W2        469             0.0000000000
      1407       469  TIP3      H2            -14.7495105720      -49.2590124159       -6.5480563352  W2        469             0.0000000000
      1408       470  TIP3      OH2            -8.7591805720      -44.3933224159       -6.4528563352  W2        470             0.0000000000
      1409       470  TIP3      H1             -8.9995205720      -43.7310124159       -5.8049363352  W2        470             0.0000000000
      1410       470  TIP3      H2             -8.9573605720      -45.2278024159       -6.0278963352  W2        470             0.0000000000
      1411       471  TIP3      OH2           -14.1883305720      -45.4972424159       -2.4697163352  W2        471             0.0000000000
      1412       471  TIP3      H1            -14.4995805720      -44.7149224159       -2.0143963352  W2        471             0.0000000000
      1413       471  TIP3      H2            -14.8383105720      -45.6503324159       -3.1555163352  W2        471             0.0000000000
      1414       472  TIP3      OH2            -8.2093705720      -50.1334024159      -15.0177863352  W2        472             0.0000000000
      1415       472  TIP3      H1             -7.6298205720      -49.9833724159      -14.2708963352  W2        472             0.0000000000
      1416       472  TIP3      H2             -7.7953705720      -49.6626624159      -15.7411463352  W2        472             0.0000000000
      1417       473  TIP3      OH2           -17.2683405720      -49.2991324159       -3.2411463352  W2        473             0.0000000000
      1418       473  TIP3      H1            -17.1980205720      -48.6484524159       -2.5426463352  W2        473             0.0000000000
      1419       473  TIP3      H2            -18.1591205720      -49.1963824159       -3.5760563352  W2        473             0.0000000000
      1420       474  TIP3      OH2           -10.4828805720      -43.3965524159      -11.5824763352  W2        474             0.0000000000
      1421       474  TIP3      H1            -10.0091205720      -43.1009224159      -10.8050563352  W2        474             0.0000000000
      1422       474  TIP3      H2            -11.0459505720      -42.6583924159      -11.8155163352  W2        474             0.0000000000
      1423       475  TIP3      OH2           -15.9487405720      -43.4257424159       -1.7063363352  W2        475             0.0000000000
      1424       475  TIP3      H1            -15.9412105720      -43.5617724159       -2.6537863352  W2        475             0.0000000000
      1425       475  TIP3      H2            -16.8647005720      -43.5429324159       -1.4543363352  W2        475             0.0000000000
      1426       476  TIP3      OH2            -4.5105305720      -58.3833624159      -15.2048163352  W2        476             0.0000000000
      1427       476  TIP3      H1             -5.4104605720      -58.2444624159      -14.9097563352  W2        476             0.0000000000
      1428       476  TIP3      H2             -4.2586905720      -57.5519024159      -15.6066463352  W2        476             0.0000000000
      1429       477  TIP3      OH2           -16.4446805720      -49.5956424159      -13.2311263352  W2        477             0.0000000000
      1430       477  TIP3      H1            -16.7365505720      -48.8274724159      -13.7219963352  W2        477             0.0000000000
      1431       477  TIP3      H2            -17.1191605720      -50.2550224159      -13.3939863352  W2        477             0.0000000000
      1432       478  TIP3      OH2            -3.3213905720      -44.0171224159      -16.8284263352  W2        478             0.0000000000
      1433       478  TIP3      H1             -3.2480405720      -43.0781024159      -16.6578963352  W2        478             0.0000000000
      1434       478  TIP3      H2             -2.4158805720      -44.3222624159      -16.8846963352  W2        478             0.0000000000
      1435       479  TIP3      OH2           -20.3516705720      -47.2327224159       -4.4161463352  W2        479             0.0000000000
      1436       479  TIP3      H1            -20.8528305720      -47.2607824159       -5.2311763352  W2        479             0.0000000000
      1437       479  TIP3      H2            -20.3463005720      -48.1384024159       -4.1064163352  W2        479             0.0000000000
      1438       480  TIP3      OH2           -20.6014005720      -44.4523424159       -7.5321263352  W2        480             0.0000000000
      1439       480  TIP3      H1            -19.6553405720      -44.5966424159       -7.5511763352  W2        480             0.0000000000
      1440       480  TIP3      H2            -20.7137705720      -43.6680624159       -6.9950063352  W2        480             0.0000000000
      1441       481  TIP3      OH2            -2.4035505720      -43.7863724159       -1.8497563352  W2        481             0.0000000000
      1442       481  TIP3      H1             -2.4528705720      -44.7415624159       -1.8869963352  W2        481             0.0000000000
      1443       481  TIP3      H2             -3.2303205720      -43.5188424159       -1.4483763352  W2        481             0.0000000000
      1444       482  TIP3      OH2           -11.4251505720      -44.2124524159       -2.9736163352  W2        482             0.0000000000
      1445       482  TIP3      H1            -11.3376905720      -43.3859924159       -2.4987063352  W2        482             0.0000000000
      1446       482  TIP3      H2            -12.2886405720      -44.5420724159       -2.7246863352  W2        482             0.0000000000
      1447       483  TIP3      OH2           -11.0105705720      -40.4400824159      -13.1675563352  W2        483             0.0000000000
      1448       483  TIP3      H1            -11.0859705720      -40.5613624159      -14.1140363352  W2        483             0.0000000000
      1449       483  TIP3      H2            -10.9777005720      -39.4908124159      -13.0490963352  W2        483             0.0000000000
      1450       484  TIP3      OH2           -17.3571905720      -41.6513824159      -11.3866563352  W2        484             0.0000000000
      1451       484  TIP3      H1            -17.2051505720      -41.9993424159      -10.5080063352  W2        484             0.0000000000
      1452       484  TIP3      H2            -18.2081505720      -42.0076524159      -11.6419363352  W2        484             0.0000000000
      1453       485  TIP3      OH2            -7.9089705720      -41.2860624159      -16.1653163352  W2        485             0.0000000000
      1454       485  TIP3      H1             -7.5341305720      -42.0304524159      -16.6360563352  W2        485             0.0000000000
      1455       485  TIP3      H2             -7.9046005720      -41.5560024159      -15.2469863352  W2        485             0.0000000000
      1456       486  TIP3      OH2            -8.2401605720      -41.3603524159      -13.4160963352  W2        486             0.0000000000
      1457       486  TIP3      H1             -9.1751805720      -41.2601624159      -13.2373963352  W2        486             0.0000000000
      1458       486  TIP3      H2             -7.9599705720      -42.0697524159      -12.8377763352  W2        486             0.0000000000
      1459       487  TIP3      OH2            -5.2515705720      -52.2931224159       -1.3695363352  W2        487             0.0000000000
      1460       487  TIP3      H1             -5.6588905720      -51.8125624159       -2.0902063352  W2        487             0.0000000000
      1461       487  TIP3      H2             -5.2110005720      -53.1985224159       -1.6774563352  W2        487             0.0000000000
      1462       488  TIP3      OH2           -18.1026205720      -45.9091824159       -3.3728663352  W2        488             0.0000000000
      1463       488  TIP3      H1            -17.8864905720      -46.2706224159       -2.5132863352  W2        488             0.0000000000
      1464       488  TIP3      H2            -18.9581505720      -46.2838024159       -3.5825163352  W2        488             0.0000000000
      1465       489  TIP3      OH2           -15.4838205720      -57.4391324159       -7.3774463352  W2        489             0.0000000000
      1466       489  TIP3      H1            -16.3454505720      -57.5263124159       -7.7851563352  W2        489             0.0000000000
      1467       489  TIP3      H2            -15.5062505720      -56.5831224159       -6.9496863352  W2        489             0.0000000000
      1468       490  TIP3      OH2           -10.8210405720      -57.7170924159       -4.0027463352  W2        490             0.0000000000
      1469       490  TIP3      H1            -10.4007305720      -58.1323824159       -3.2496863352  W2        490             0.0000000000
      1470       490  TIP3      H2            -11.7540805720      -57.8957624159       -3.8855463352  W2        490             0.0000000000
      1471       491  TIP3      OH2            -7.4945505720      -53.9615724159       -3.1492963352  W2        491             0.0000000000
      1472       491  TIP3      H1             -8.0086005720      -54.0873524159       -2.3516963352  W2        491             0.0000000000
      1473       491  TIP3      H2             -7.6500805720      -53.0492624159       -3.3936763352  W2        491             0.0000000000
      1474       492  TIP3      OH2            -6.7320605720      -49.1005724159      -17.3879963352  W2        492             0.0000000000
      1475       492  TIP3      H1             -6.6899805720      -49.3231824159      -18.3179963352  W2        492             0.0000000000
      1476       492  TIP3      H2             -5.8828505720      -48.7018624159      -17.1980063352  W2        492             0.0000000000
      1477       493  TIP3      OH2           -11.1593105720      -55.2247524159      -16.7176663352  W2        493             0.0000000000
      1478       493  TIP3      H1            -11.4128305720      -55.2055924159      -15.7948563352  W2        493             0.0000000000
      1479       493  TIP3      H2            -11.4161005720      -56.0962124159      -17.0190463352  W2        493             0.0000000000
      1480       494  TIP3      OH2           -15.3928105720      -52.4736824159       -6.2824263352  W2        494             0.0000000000
      1481       494  TIP3      H1            -16.0346005720      -52.5139524159       -5.5734163352  W2        494             0.0000000000
      1482       494  TIP3      H2            -15.3556105720      -51.5472124159       -6.5201263352  W2        494             0.0000000000
      1483       495  TIP3      OH2           -15.3959005720      -52.2526724159      -11.3704263352  W2        495             0.0000000000
      1484       495  TIP3      H1            -16.2886105720      -52.5930624159      -11.4290463352  W2        495             0.0000000000
      1485       495  TIP3      H2            -14.9452405720      -52.6295824159      -12.1261063352  W2        495             0.0000000000
      1486       496  TIP3      OH2            -9.8603505720      -51.8366424159      -12.5533463352  W2        496             0.0000000000
      1487       496  TIP3      H1            -10.2693205720      -51.0217824159      -12.8448663352  W2        496             0.0000000000
      1488       496  TIP3      H2             -9.1397305720      -51.9766324159      -13.1676363352  W2        496             0.0000000000
      1489       497  TIP3      OH2           -10.7581905720      -51.6610024159       -1.0652763352  W2        497             0.0000000000
      1490       497  TIP3      H1            -11.3208105720      -52.3658424159       -0.7444963352  W2        497             0.0000000000
      1491       497  TIP3      H2             -9.9318505720      -51.7818124159       -0.5975163352  W2        497             0.0000000000
      1492       498  TIP3      OH2            -8.8555805720      -52.3906024159       -9.7393763352  W2        498             0.0000000000
      1493       498  TIP3      H1             -9.0511305720      -51.7849224159      -10.4543163352  W2        498             0.0000000000
      1494       498  TIP3      H2             -8.6743205720      -53.2240824159      -10.1737463352  W2        498             0.0000000000
      1495       499  TIP3      OH2           -17.6427605720      -52.1533324159       -4.4152263352  W2        499             0.0000000000
      1496       499  TIP3      H1            -17.6808205720      -51.7531724159       -3.5465163352  W2        499             0.0000000000
      1497       499  TIP3      H2            -18.1336505720      -52.9700924159       -4.3249363352  W2        499             0.0000000000
      1498       500  TIP3      OH2           -14.2770205720      -54.7791024159      -17.6166263352  W2        500             0.0000000000
      1499       500  TIP3      H1            -14.7079505720      -55.2240924159      -16.8868863352  W2        500             0.0000000000
      1500       500  TIP3      H2            -14.9951505720      -54.4074724159      -18.1288763352  W2        500             0.0000000000
      1501       501  TIP3      OH2           -21.0346805720      -55.0371524159      -10.5647563352  W2        501             0.0000000000
      1502       501  TIP3      H1            -20.4039105720      -55.0659424159       -9.8453663352  W2        501             0.0000000000
      1503       501  TIP3      H2            -20.5852505720      -55.4622824159      -11.2951663352  W2        501             0.0000000000
      1504       502  TIP3      OH2           -19.7604705720      -54.2909524159      -15.1407163352  W2        502             0.0000000000
      1505       502  TIP3      H1            -19.2863005720      -53.6999624159      -15.7256263352  W2        502             0.0000000000
      1506       502  TIP3      H2            -20.4778305720      -53.7606624159      -14.7937063352  W2        502             0.0000000000
      1507       503  TIP3      OH2            -9.5916605720      -50.7524724159       -5.0681363352  W2        503             0.0000000000
      1508       503  TIP3      H1             -9.2681805720      -51.3835024159       -5.7110863352  W2        503             0.0000000000
      1509       503  TIP3      H2            -10.0317305720      -51.2872524159       -4.4073963352  W2        503             0.0000000000
      1510       504  TIP3      OH2           -12.8143705720      -54.8249224159      -10.2840163352  W2        504             0.0000000000
      1511       504  TIP3      H1            -13.7252605720      -54.7682424159       -9.9954163352  W2        504             0.0000000000
      1512       504  TIP3      H2            -12.3090805720      -54.8853724159       -9.4732963352  W2        504             0.0000000000
      1513       505  TIP3      OH2           -17.9860305720      -53.1962924159      -11.4572563352  W2        505             0.0000000000
      1514       505  TIP3      H1            -18.8752305720      -53.0967424159      -11.7972963352  W2        505             0.0000000000
      1515       505  TIP3      H2            -17.6895405720      -54.0379924159      -11.8034663352  W2        505             0.0000000000
      1516       506  TIP3      OH2           -14.3328505720      -53.1960324159      -13.8007963352  W2        506             0.0000000000
      1517       506  TIP3      H1            -13.4013005720      -53.0670324159      -13.6224863352  W2        506             0.0000000000
      1518       506  TIP3      H2            -14.5478205720      -52.5266024159      -14.4503263352  W2        506             0.0000000000
      1519       507  TIP3      OH2            -8.4091805720      -55.5902924159       -7.0198363352  W2        507             0.0000000000
      1520       507  TIP3      H1             -9.0860205720      -55.4589824159       -6.3558663352  W2        507             0.0000000000
      1521       507  TIP3      H2             -8.8946905720      -55.7453424159       -7.8300663352  W2        507             0.0000000000
      1522       508  TIP3      OH2           -15.6588305720      -52.0018124159      -16.2341863352  W2        508             0.0000000000
      1523       508  TIP3      H1            -16.2013205720      -52.3814324159      -16.9254263352  W2        508             0.0000000000
      1524       508  TIP3      H2            -14.8253405720      -51.8073424159      -16.6627763352  W2        508             0.0000000000
      1525       509  TIP3      OH2            -5.1216705720      -39.9187524159       -0.7430763352  W2        509             0.0000000000
      1526       509  TIP3      H1             -4.9218005720      -39.4945624159       -1.5775463352  W2        509             0.0000000000
      1527       509  TIP3      H2             -4.4663005720      -39.5749324159       -0.1360363352  W2        509             0.0000000000
      1528       510  TIP3      OH2           -17.5236905720      -47.4446224159       -1.1350263352  W2        510             0.0000000000
      1529       510  TIP3      H1            -16.7914505720      -47.1900324159       -0.5735763352  W2        510             0.0000000000
      1530       510  TIP3      H2            -18.3038205720      -47.2400824159       -0.6194863352  W2        510             0.0000000000
      1531       511  TIP3      OH2           -11.4944005720      -52.0376224159       -8.3970563352  W2        511             0.0000000000
      1532       511  TIP3      H1            -10.9300605720      -52.5839624159       -8.9440963352  W2        511             0.0000000000
      1533       511  TIP3      H2            -11.6420605720      -52.5594324159       -7.6082963352  W2        511             0.0000000000
      1534       512  TIP3      OH2           -16.4924305720      -55.9010124159      -11.9785763352  W2        512             0.0000000000
      1535       512  TIP3      H1            -16.8094805720      -56.8034824159      -12.0140363352  W2        512             0.0000000000
      1536       512  TIP3      H2            -15.7110205720      -55.8992724159      -12.5314163352  W2        512             0.0000000000
      1537       513  TIP3      OH2           -12.8678105720      -53.6490124159       -5.9830163352  W2        513             0.0000000000
      1538       513  TIP3      H1            -13.7032805720      -53.1950624159       -5.8727763352  W2        513             0.0000000000
      1539       513  TIP3      H2            -12.3437505720      -53.3731624159       -5.2310263352  W2        513             0.0000000000
      1540       514  TIP3      OH2           -12.3235505720      -47.4362424159      -14.2983763352  W2        514             0.0000000000
      1541       514  TIP3      H1            -13.0684505720      -47.9437124159      -14.6205863352  W2        514             0.0000000000
      1542       514  TIP3      H2            -12.4578305720      -47.3874424159      -13.3518963352  W2        514             0.0000000000
      1543       515  TIP3      OH2            -5.1736605720      -48.3034224159       -5.5116163352  W2        515             0.0000000000
      1544       515  TIP3      H1             -4.5317805720      -47.8467924159       -6.0553963352  W2        515             0.0000000000
      1545       515  TIP3      H2             -6.0039705720      -48.1901824159       -5.9742063352  W2        515             0.0000000000
      1546       516  TIP3      OH2            -8.4258705720      -54.6222524159      -16.0991163352  W2        516             0.0000000000
      1547       516  TIP3      H1             -9.3644505720      -54.5106924159      -16.2502363352  W2        516             0.0000000000
      1548       516  TIP3      H2             -8.1286605720      -53.7655624159      -15.7925463352  W2        516             0.0000000000
      1549       517  TIP3      OH2           -10.8043405720      -47.2519124159       -3.0614663352  W2        517             0.0000000000
      1550       517  TIP3      H1            -11.1497305720      -47.6336724159       -2.2545063352  W2        517             0.0000000000
      1551       517  TIP3      H2            -11.0043305720      -46.3185524159       -2.9901763352  W2        517             0.0000000000
      1552       518  TIP3      OH2            -7.7075205720      -52.7549824159      -14.4383763352  W2        518             0.0000000000
      1553       518  TIP3      H1             -6.8156205720      -52.8924824159      -14.1192563352  W2        518             0.0000000000
      1554       518  TIP3      H2             -7.6511605720      -51.9643724159      -14.9750263352  W2        518             0.0000000000
      1555       519  TIP3      OH2           -17.1987205720      -48.1412424159       -8.5285863352  W2        519             0.0000000000
      1556       519  TIP3      H1            -16.4540005720      -48.1436724159       -9.1299363352  W2        519             0.0000000000
      1557       519  TIP3      H2            -17.1210605720      -48.9648624159       -8.0470763352  W2        519             0.0000000000
      1558       520  TIP3      OH2           -10.1981405720      -45.9778124159      -15.2729163352  W2        520             0.0000000000
      1559       520  TIP3      H1            -10.4933005720      -45.1510224159      -14.8914363352  W2        520             0.0000000000
      1560       520  TIP3      H2            -10.9011405720      -46.5971224159      -15.0767763352  W2        520             0.0000000000
      1561       521  TIP3      OH2           -20.1907505720      -49.6805524159       -3.2137363352  W2        521             0.0000000000
      1562       521  TIP3      H1            -19.9678905720      -50.0985924159       -2.3819863352  W2        521             0.0000000000
      1563       521  TIP3      H2            -20.7927405720      -50.2930524159       -3.6364563352  W2        521             0.0000000000
      1564       522  TIP3      OH2           -13.1742605720      -50.1635624159       -1.0007663352  W2        522             0.0000000000
      1565       522  TIP3      H1            -13.4701805720      -50.3292624159       -1.8958563352  W2        522             0.0000000000
      1566       522  TIP3      H2            -12.2427405720      -50.3835324159       -1.0113763352  W2        522             0.0000000000
      1567       523  TIP3      OH2            -8.5539805720      -44.7903624159       -3.1109663352  W2        523             0.0000000000
      1568       523  TIP3      H1             -9.4545505720      -44.6071024159       -3.3785763352  W2        523             0.0000000000
      1569       523  TIP3      H2             -8.5198705720      -44.5314324159       -2.1900863352  W2        523             0.0000000000
      1570       524  TIP3      OH2            -2.8226505720      -52.5455724159      -14.7437063352  W2        524             0.0000000000
      1571       524  TIP3      H1             -3.3770205720      -52.9417724159      -15.4159563352  W2        524             0.0000000000
      1572       524  TIP3      H2             -2.7222905720      -51.6350524159      -15.0213763352  W2        524             0.0000000000
      1573       525  TIP3      OH2            -2.8594505720      -46.7454024159       -1.9065563352  W2        525             0.0000000000
      1574       525  TIP3      H1             -3.7106005720      -46.5070224159       -2.2739163352  W2        525             0.0000000000
      1575       525  TIP3      H2             -2.2691105720      -46.7620824159       -2.6598463352  W2        525             0.0000000000
      1576       526  TIP3      OH2            -4.5274805720      -43.7595324159      -14.2784963352  W2        526             0.0000000000
      1577       526  TIP3      H1             -4.9003705720      -44.5851524159      -13.9694363352  W2        526             0.0000000000
      1578       526  TIP3      H2             -4.2501305720      -43.9425924159      -15.1761563352  W2        526             0.0000000000
      1579       527  TIP3      OH2            -7.3670905720      -48.9515824159       -7.2573063352  W2        527             0.0000000000
      1580       527  TIP3      H1             -8.2954005720      -49.1833924159       -7.2843763352  W2        527             0.0000000000
      1581       527  TIP3      H2             -6.9159805720      -49.7286024159       -7.5874263352  W2        527             0.0000000000
      1582       528  TIP3      OH2           -14.8237805720      -44.6234224159      -11.1244363352  W2        528             0.0000000000
      1583       528  TIP3      H1            -14.2965605720      -43.8499824159      -11.3245563352  W2        528             0.0000000000
      1584       528  TIP3      H2            -15.7039305720      -44.3985024159      -11.4260363352  W2        528             0.0000000000
      1585       529  TIP3      OH2           -19.0690105720      -49.7610124159      -16.5371963352  W2        529             0.0000000000
      1586       529  TIP3      H1            -18.4530205720      -49.1342924159      -16.1577163352  W2        529             0.0000000000
      1587       529  TIP3      H2            -19.9307505720      -49.4450324159      -16.2655463352  W2        529             0.0000000000
      1588       530  TIP3      OH2           -13.3965505720      -46.9604324159      -11.5480063352  W2        530             0.0000000000
      1589       530  TIP3      H1            -13.6375505720      -46.0349924159      -11.5064763352  W2        530             0.0000000000
      1590       530  TIP3      H2            -14.1371905720      -47.4193024159      -11.1516163352  W2        530             0.0000000000
      1591       531  TIP3      OH2           -12.8818905720      -42.8110724159       -5.2328963352  W2        531             0.0000000000
      1592       531  TIP3      H1            -12.5194205720      -41.9565124159       -5.4664563352  W2        531             0.0000000000
      1593       531  TIP3      H2            -12.3503705720      -43.1029124159       -4.4922663352  W2        531             0.0000000000
      1594       532  TIP3      OH2           -14.7134705720      -41.9386724159      -12.0027863352  W2        532             0.0000000000
      1595       532  TIP3      H1            -15.6634205720      -41.8329324159      -11.9514563352  W2        532             0.0000000000
      1596       532  TIP3      H2            -14.3616605720      -41.1179324159      -11.6580363352  W2        532             0.0000000000
      1597       533  TIP3      OH2            -9.3378105720      -46.7120024159       -5.5323363352  W2        533             0.0000000000
      1598       533  TIP3      H1             -9.7636805720      -46.9398324159       -4.7059363352  W2        533             0.0000000000
      1599       533  TIP3      H2             -8.7572305720      -47.4508224159       -5.7148063352  W2        533             0.0000000000
      1600       534  TIP3      OH2            -7.1349205720      -45.7829524159      -16.4584363352  W2        534             0.0000000000
      1601       534  TIP3      H1             -6.7816105720      -46.1629724159      -15.6540863352  W2        534             0.0000000000
      1602       534  TIP3      H2             -8.0835705720      -45.8764724159      -16.3715063352  W2        534             0.0000000000
      1603       535  TIP3      OH2            -6.6793905720      -42.1600524159       -3.0628563352  W2        535             0.0000000000
      1604       535  TIP3      H1             -7.2810705720      -42.7157624159       -3.5582263352  W2        535             0.0000000000
      1605       535  TIP3      H2             -6.3980205720      -41.4930724159       -3.6891163352  W2        535             0.0000000000
      1606       536  TIP3      OH2            -2.6314805720      -41.3037024159      -16.2574163352  W2        536             0.0000000000
      1607       536  TIP3      H1             -1.8876905720      -40.7176524159      -16.3972563352  W2        536             0.0000000000
      1608       536  TIP3      H2             -3.3256705720      -40.7351224159      -15.9241763352  W2        536             0.0000000000
      1609       537  TIP3      OH2           -18.5568005720      -54.9272824159       -3.6555963352  W2        537             0.0000000000
      1610       537  TIP3      H1            -19.4495705720      -54.5887424159       -3.7231963352  W2        537             0.0000000000
      1611       537  TIP3      H2            -18.6555205720      -55.7826724159       -3.2375163352  W2        537             0.0000000000
      1612       538  TIP3      OH2            -6.2689905720      -47.1107524159      -14.2316463352  W2        538             0.0000000000
      1613       538  TIP3      H1             -6.5462305720      -47.8388224159      -13.6755363352  W2        538             0.0000000000
      1614       538  TIP3      H2             -5.3416905720      -46.9915524159      -14.0263863352  W2        538             0.0000000000
      1615       539  TIP3      OH2           -18.9056005720      -43.1228424159       -5.2206563352  W2        539             0.0000000000
      1616       539  TIP3      H1            -18.6885705720      -44.0546024159       -5.2516863352  W2        539             0.0000000000
      1617       539  TIP3      H2            -18.6592505720      -42.8483424159       -4.3373763352  W2        539             0.0000000000
      1618       540  TIP3      OH2           -13.0441405720      -44.6713424159      -18.0114363352  W2        540             0.0000000000
      1619       540  TIP3      H1            -12.8051605720      -45.4195324159      -18.5585463352  W2        540             0.0000000000
      1620       540  TIP3      H2            -13.3130105720      -45.0591724159      -17.1786563352  W2        540             0.0000000000
      1621       541  TIP3      OH2           -14.1070805720      -45.1009624159      -15.5551763352  W2        541             0.0000000000
      1622       541  TIP3      H1            -13.9602805720      -45.6209824159      -14.7650863352  W2        541             0.0000000000
      1623       541  TIP3      H2            -14.1099105720      -44.1942024159      -15.2485863352  W2        541             0.0000000000
      1624       542  TIP3      OH2           -17.6539705720      -47.8486324159      -15.0446363352  W2        542             0.0000000000
      1625       542  TIP3      H1            -18.3400405720      -47.4963824159      -14.4776663352  W2        542             0.0000000000
      1626       542  TIP3      H2            -17.1311805720      -47.0856724159      -15.2912063352  W2        542             0.0000000000
      1627       543  TIP3      OH2            -9.8224605720      -55.1862524159       -4.7657363352  W2        543             0.0000000000
      1628       543  TIP3      H1             -9.1236705720      -55.1123824159       -4.1157663352  W2        543             0.0000000000
      1629       543  TIP3      H2            -10.2033205720      -56.0507524159       -4.6114463352  W2        543             0.0000000000
      1630       544  TIP3      OH2            -9.0379705720      -55.5340824159      -13.6685063352  W2        544             0.0000000000
      1631       544  TIP3      H1             -8.8181405720      -55.0625424159      -14.4719663352  W2        544             0.0000000000
      1632       544  TIP3      H2             -8.4795705720      -55.1398224159      -12.9984463352  W2        544             0.0000000000
      1633       545  TIP3      OH2           -11.3693605720      -43.4036024159      -14.8057563352  W2        545             0.0000000000
      1634       545  TIP3      H1            -12.1857505720      -42.9066324159      -14.7533263352  W2        545             0.0000000000
      1635       545  TIP3      H2            -10.8397305720      -42.9282524159      -15.4458763352  W2        545             0.0000000000
      1636       546  TIP3      OH2           -11.8379805720      -53.8062024159      -12.8336663352  W2        546             0.0000000000
      1637       546  TIP3      H1            -11.0257205720      -53.3018824159      -12.7874963352  W2        546             0.0000000000
      1638       546  TIP3      H2            -12.0826805720      -53.9512324159      -11.9197063352  W2        546             0.0000000000
      1639       547  TIP3      OH2           -11.3023405720      -52.8199324159       -3.6490063352  W2        547             0.0000000000
      1640       547  TIP3      H1            -11.1833105720      -52.2463924159       -2.8919663352  W2        547             0.0000000000
      1641       547  TIP3      H2            -10.6468805720      -53.5079924159       -3.5342263352  W2        547             0.0000000000
      1642       548  TIP3      OH2           -10.9543105720      -56.7249024159      -11.8955563352  W2        548             0.0000000000
      1643       548  TIP3      H1            -11.3009605720      -56.1078424159      -11.2511263352  W2        548             0.0000000000
      1644       548  TIP3      H2            -10.2956205720      -56.2243324159      -12.3770063352  W2        548             0.0000000000
      1645       549  TIP3      OH2           -14.0310505720      -42.3598824159      -14.8240663352  W2        549             0.0000000000
      1646       549  TIP3      H1            -13.8701805720      -41.5601324159      -15.3248063352  W2        549             0.0000000000
      1647       549  TIP3      H2            -14.2282705720      -42.0532824159      -13.9390063352  W2        549             0.0000000000
      1648       550  TIP3      OH2           -15.2966105720      -55.6619624159      -15.2083063352  W2        550             0.0000000000
      1649       550  TIP3      H1            -15.3801305720      -54.7736524159      -14.8616663352  W2        550             0.0000000000
      1650       550  TIP3      H2            -14.4065805720      -55.9272924159      -14.9766263352  W2        550             0.0000000000
      1651       551  TIP3      OH2            -5.0977605720      -54.9129024159       -2.8140363352  W2        551             0.0000000000
      1652       551  TIP3      H1             -6.0141805720      -54.6507324159       -2.9016663352  W2        551             0.0000000000
      1653       551  TIP3      H2             -4.7622605720      -54.9160024159       -3.7105063352  W2        551             0.0000000000
      1654       552  TIP3      OH2            -6.4956605720      -51.1628024159       -8.7183063352  W2        552             0.0000000000
      1655       552  TIP3      H1             -7.2932205720      -51.5777824159       -9.0468063352  W2        552             0.0000000000
      1656       552  TIP3      H2             -6.0505505720      -51.8534324159       -8.2272563352  W2        552             0.0000000000
      1657       553  TIP3      OH2           -17.0380805720      -45.2347424159      -16.1478563352  W2        553             0.0000000000
      1658       553  TIP3      H1            -16.4459305720      -44.5352624159      -15.8716163352  W2        553             0.0000000000
      1659       553  TIP3      H2            -16.5787805720      -45.6677924159      -16.8673963352  W2        553             0.0000000000
      1660       554  TIP3      OH2           -18.7221605720      -52.5704424159      -17.0319163352  W2        554             0.0000000000
      1661       554  TIP3      H1            -18.7669005720      -51.6311324159      -16.8532163352  W2        554             0.0000000000
      1662       554  TIP3      H2            -19.6098405720      -52.8059524159      -17.3017063352  W2        554             0.0000000000
      1663       555  TIP3      OH2            -5.4092005720      -41.9065524159       -7.0959563352  W2        555             0.0000000000
      1664       555  TIP3      H1             -5.5647705720      -41.2281124159       -7.7530263352  W2        555             0.0000000000
      1665       555  TIP3      H2             -4.4765605720      -41.8346224159       -6.8928963352  W2        555             0.0000000000
      1666       556  TIP3      OH2           -17.9139605720      -57.7887824159       -8.3588163352  W2        556             0.0000000000
      1667       556  TIP3      H1            -18.1429805720      -57.7295324159       -9.2863163352  W2        556             0.0000000000
      1668       556  TIP3      H2            -18.3566205720      -58.5802324159       -8.0524063352  W2        556             0.0000000000
      1669       557  TIP3      OH2           -18.9836305720      -43.8480724159      -12.1982363352  W2        557             0.0000000000
      1670       557  TIP3      H1            -19.8157705720      -43.3758024159      -12.1710963352  W2        557             0.0000000000
      1671       557  TIP3      H2            -18.4378005720      -43.3383124159      -12.7969263352  W2        557             0.0000000000
      1672       558  TIP3      OH2           -19.6952605720      -41.2357024159       -0.8684363352  W2        558             0.0000000000
      1673       558  TIP3      H1            -19.1550405720      -41.4523024159       -0.1085163352  W2        558             0.0000000000
      1674       558  TIP3      H2            -20.1764605720      -42.0411024159       -1.0581863352  W2        558             0.0000000000
      1675       559  TIP3      OH2           -15.0979205720      -42.3162624159        0.7519836648  W2        559             0.0000000000
      1676       559  TIP3      H1            -14.3302005720      -42.7751824159        1.0929036648  W2        559             0.0000000000
      1677       559  TIP3      H2            -15.1193005720      -42.5422824159       -0.1778963352  W2        559             0.0000000000
      1678       560  TIP3      OH2           -11.0059605720      -42.8082024159      -17.8728363352  W2        560             0.0000000000
      1679       560  TIP3      H1            -11.6498605720      -43.4393424159      -17.5514663352  W2        560             0.0000000000
      1680       560  TIP3      H2            -10.2441305720      -43.3394024159      -18.1044863352  W2        560             0.0000000000
      1681       561  TIP3      OH2            -8.5210505720      -43.9361524159       -0.5188663352  W2        561             0.0000000000
      1682       561  TIP3      H1             -8.8721005720      -44.7928524159       -0.2758263352  W2        561             0.0000000000
      1683       561  TIP3      H2             -7.7947305720      -43.7934824159        0.0880336648  W2        561             0.0000000000
      1684       562  TIP3      OH2            -6.4016705720      -42.9912124159      -17.6390363352  W2        562             0.0000000000
      1685       562  TIP3      H1             -6.1186305720      -43.7856924159      -17.1863463352  W2        562             0.0000000000
      1686       562  TIP3      H2             -5.6618805720      -42.7581124159      -18.1999263352  W2        562             0.0000000000
      1687       563  TIP3      OH2           -19.7883105720      -47.4252924159        0.0859936648  W2        563             0.0000000000
      1688       563  TIP3      H1            -19.6442605720      -48.3272224159       -0.2003363352  W2        563             0.0000000000
      1689       563  TIP3      H2            -20.5605705720      -47.1390824159       -0.4017763352  W2        563             0.0000000000
      1690       564  TIP3      OH2           -15.4469405720      -47.0817224159      -17.7815463352  W2        564             0.0000000000
      1691       564  TIP3      H1            -15.3825305720      -47.8757624159      -17.2509063352  W2        564             0.0000000000
      1692       564  TIP3      H2            -14.7940205720      -47.2004424159      -18.4713463352  W2        564             0.0000000000
      1693       565  TIP3      OH2           -13.1327005720      -47.4554824159       -0.4813663352  W2        565             0.0000000000
      1694       565  TIP3      H1            -13.4613205720      -47.1846724159       -1.3386263352  W2        565             0.0000000000
      1695       565  TIP3      H2            -12.9808805720      -48.3965024159       -0.5688663352  W2        565             0.0000000000
      1696       566  TIP3      OH2           -10.0946005720      -46.0345524159      -18.0457463352  W2        566             0.0000000000
      1697       566  TIP3      H1            -10.3631905720      -45.8543424159      -17.1448563352  W2        566             0.0000000000
      1698       566  TIP3      H2            -10.3010405720      -46.9599324159      -18.1771663352  W2        566             0.0000000000
      1699       567  TIP3      OH2            -7.3981805720      -47.5397524159       -3.0981363352  W2        567             0.0000000000
      1700       567  TIP3      H1             -6.6527005720      -46.9513824159       -3.2177363352  W2        567             0.0000000000
      1701       567  TIP3      H2             -8.1555005720      -46.9577824159       -3.0348263352  W2        567             0.0000000000
      1702       568  TIP3      OH2           -18.9556605720      -50.2249624159       -0.4940763352  W2        568             0.0000000000
      1703       568  TIP3      H1            -18.5475405720      -51.0823024159       -0.6150163352  W2        568             0.0000000000
      1704       568  TIP3      H2            -19.2159005720      -50.2108324159        0.4269536648  W2        568             0.0000000000
      1705       569  TIP3      OH2           -14.2975605720      -49.1091024159      -15.4757463352  W2        569             0.0000000000
      1706       569  TIP3      H1            -14.7573605720      -49.5932724159      -14.7898963352  W2        569             0.0000000000
      1707       569  TIP3      H2            -14.0426905720      -49.7775624159      -16.1116963352  W2        569             0.0000000000
      1708       570  TIP3      OH2           -15.0086305720      -51.2163924159       -3.1197863352  W2        570             0.0000000000
      1709       570  TIP3      H1            -15.6270205720      -50.5417324159       -2.8393163352  W2        570             0.0000000000
      1710       570  TIP3      H2            -14.6645105720      -50.8950024159       -3.9531663352  W2        570             0.0000000000
      1711       571  TIP3      OH2           -13.2265205720      -50.8659224159      -17.2134263352  W2        571             0.0000000000
      1712       571  TIP3      H1            -13.4070205720      -51.0208024159      -18.1405963352  W2        571             0.0000000000
      1713       571  TIP3      H2            -12.2764705720      -50.7580524159      -17.1686363352  W2        571             0.0000000000
      1714       572  TIP3      OH2            -9.9888105720      -48.7448624159        0.1576936648  W2        572             0.0000000000
      1715       572  TIP3      H1             -9.0356905720      -48.6609524159        0.1302936648  W2        572             0.0000000000
      1716       572  TIP3      H2            -10.1493505720      -49.4566824159        0.7771836648  W2        572             0.0000000000
      1717       573  TIP3      OH2            -3.8366905720      -48.5115024159      -17.7676163352  W2        573             0.0000000000
      1718       573  TIP3      H1             -4.1102105720      -48.9359524159      -18.5807863352  W2        573             0.0000000000
      1719       573  TIP3      H2             -3.7972805720      -47.5800524159      -17.9845763352  W2        573             0.0000000000
      1720       574  TIP3      OH2           -14.6692605720      -53.8613124159       -2.0374763352  W2        574             0.0000000000
      1721       574  TIP3      H1            -14.5191705720      -54.5901824159       -2.6395063352  W2        574             0.0000000000
      1722       574  TIP3      H2            -14.6670205720      -53.0841424159       -2.5962563352  W2        574             0.0000000000
      1723       575  TIP3      OH2           -14.2566905720      -55.4917324159       -4.5447363352  W2        575             0.0000000000
      1724       575  TIP3      H1            -13.7209405720      -55.0400624159       -5.1968063352  W2        575             0.0000000000
      1725       575  TIP3      H2            -15.1087305720      -55.5997524159       -4.9673263352  W2        575             0.0000000000
      1726       576  TIP3      OH2           -12.6748505720      -50.0521124159       -4.3052163352  W2        576             0.0000000000
      1727       576  TIP3      H1            -11.9243705720      -50.2083624159       -4.8784363352  W2        576             0.0000000000
      1728       576  TIP3      H2            -13.0140205720      -49.2004524159       -4.5806663352  W2        576             0.0000000000
      1729       577  TIP3      OH2            -8.2592305720      -52.2369324159        0.7233136648  W2        577             0.0000000000
      1730       577  TIP3      H1             -8.0671005720      -53.1679924159        0.6117636648  W2        577             0.0000000000
      1731       577  TIP3      H2             -7.4016005720      -51.8119824159        0.7128536648  W2        577             0.0000000000
      1732       578  TIP3      OH2            -6.9425105720      -49.4484124159       -1.1994163352  W2        578             0.0000000000
      1733       578  TIP3      H1             -7.2240105720      -48.7389524159       -1.7770363352  W2        578             0.0000000000
      1734       578  TIP3      H2             -6.0000805720      -49.5211124159       -1.3502963352  W2        578             0.0000000000
      1735       579  TIP3      OH2           -16.1906305720      -52.6629624159       -0.1259163352  W2        579             0.0000000000
      1736       579  TIP3      H1            -16.9577305720      -53.1954824159       -0.3361563352  W2        579             0.0000000000
      1737       579  TIP3      H2            -15.5117305720      -52.9729224159       -0.7252863352  W2        579             0.0000000000
      1738       580  TIP3      OH2           -13.4511405720      -58.0351624159       -4.1133763352  W2        580             0.0000000000
      1739       580  TIP3      H1            -13.5491805720      -57.0888424159       -4.2187563352  W2        580             0.0000000000
      1740       580  TIP3      H2            -14.1935205720      -58.4077824159       -4.5890263352  W2        580             0.0000000000
      1741       581  TIP3      OH2           -12.1870905720      -53.7136224159       -0.5495363352  W2        581             0.0000000000
      1742       581  TIP3      H1            -12.4225505720      -53.9329524159        0.3519536648  W2        581             0.0000000000
      1743       581  TIP3      H2            -12.9704005720      -53.9205024159       -1.0592863352  W2        581             0.0000000000
      1744       582  TIP3      OH2            -9.4714305720      -54.5862724159       -1.4741863352  W2        582             0.0000000000
      1745       582  TIP3      H1            -10.4188905720      -54.5543024159       -1.3418563352  W2        582             0.0000000000
      1746       582  TIP3      H2             -9.1587605720      -55.2115624159       -0.8203663352  W2        582             0.0000000000
      1747       583  TIP3      OH2            -7.8372805720      -55.9521624159        0.5310036648  W2        583             0.0000000000
      1748       583  TIP3      H1             -7.9341005720      -56.9044324159        0.5251936648  W2        583             0.0000000000
      1749       583  TIP3      H2             -8.1589705720      -55.6834824159        1.3915536648  W2        583             0.0000000000
      1750       584  TIP3      OH2           -18.0103505720      -54.7425824159       -0.4214463352  W2        584             0.0000000000
      1751       584  TIP3      H1            -17.7986105720      -55.4489724159       -1.0316963352  W2        584             0.0000000000
      1752       584  TIP3      H2            -18.1216005720      -55.1799824159        0.4226736648  W2        584             0.0000000000
      1753       585  TIP3      OH2           -13.2293305720      -58.7414224159       -1.4420963352  W2        585             0.0000000000
      1754       585  TIP3      H1            -12.5174905720      -59.3812024159       -1.4561863352  W2        585             0.0000000000
      1755       585  TIP3      H2            -13.3302905720      -58.4745924159       -2.3557863352  W2        585             0.0000000000
      1756       586  TIP3      OH2           -12.8755805720      -57.0585824159        0.6115336648  W2        586             0.0000000000
      1757       586  TIP3      H1            -13.0073605720      -57.5342024159       -0.2086163352  W2        586             0.0000000000
      1758       586  TIP3      H2            -13.4748405720      -56.3142224159        0.5562436648  W2        586             0.0000000000
      1759       587  TIP3      OH2           -13.3293505720      -40.1755524159      -16.2120663352  W2        587             0.0000000000
      1760       587  TIP3      H1            -12.3962805720      -40.0176824159      -16.0682263352  W2        587             0.0000000000
      1761       587  TIP3      H2            -13.5934705720      -39.5002524159      -16.8369163352  W2        587             0.0000000000
      1762       588  TIP3      OH2           -19.7608605720      -45.5391724159      -16.7292563352  W2        588             0.0000000000
      1763       588  TIP3      H1            -18.8469405720      -45.4602824159      -16.4558663352  W2        588             0.0000000000
      1764       588  TIP3      H2            -19.7535505720      -46.2262124159      -17.3956963352  W2        588             0.0000000000
      1765       589  TIP3      OH2           -21.1118005720      -40.1463224159      -11.6518663352  W2        589             0.0000000000
      1766       589  TIP3      H1            -21.7590905720      -40.6081524159      -12.1847463352  W2        589             0.0000000000
      1767       589  TIP3      H2            -20.7573405720      -40.8179924159      -11.0692463352  W2        589             0.0000000000
      1768       590  TIP3      OH2           -20.2418805720      -42.0656224159       -9.8472463352  W2        590             0.0000000000
      1769       590  TIP3      H1            -20.5762005720      -42.9458924159       -9.6752263352  W2        590             0.0000000000
      1770       590  TIP3      H2            -20.0196405720      -41.7201224159       -8.9826863352  W2        590             0.0000000000
      1771       591  TIP3      OH2            -2.6934005720      -41.2559824159       -6.8667663352  W2        591             0.0000000000
      1772       591  TIP3      H1             -2.7147305720      -41.0711424159       -5.9278263352  W2        591             0.0000000000
      1773       591  TIP3      H2             -2.0027805720      -40.6875824159       -7.2076263352  W2        591             0.0000000000
      1774       592  TIP3      OH2            -3.1301105720      -41.6888724159       -3.9448563352  W2        592             0.0000000000
      1775       592  TIP3      H1             -3.6172405720      -42.4244624159       -4.3161163352  W2        592             0.0000000000
      1776       592  TIP3      H2             -2.5808405720      -42.0824824159       -3.2669163352  W2        592             0.0000000000
      1777       593  TIP3      OH2            -4.6793805720      -45.8990624159        0.6931736648  W2        593             0.0000000000
      1778       593  TIP3      H1             -5.5452705720      -46.0040924159        1.0874036648  W2        593             0.0000000000
      1779       593  TIP3      H2             -4.3027905720      -45.1407324159        1.1396436648  W2        593             0.0000000000
      1780       594  TIP3      OH2            -3.3784105720      -47.6426924159      -13.7925763352  W2        594             0.0000000000
      1781       594  TIP3      H1             -2.5282705720      -47.2216024159      -13.6654163352  W2        594             0.0000000000
      1782       594  TIP3      H2             -3.3729005720      -48.3826824159      -13.1854363352  W2        594             0.0000000000
      1783       595  TIP3      OH2            -2.9838505720      -49.5889524159      -11.9690063352  W2        595             0.0000000000
      1784       595  TIP3      H1             -3.7103905720      -50.0686924159      -11.5712463352  W2        595             0.0000000000
      1785       595  TIP3      H2             -2.4025205720      -49.3834824159      -11.2368463352  W2        595             0.0000000000
      1786       596  TIP3      OH2            -3.2247305720      -46.8042024159       -7.0212463352  W2        596             0.0000000000
      1787       596  TIP3      H1             -2.3913105720      -47.1822024159       -7.3018863352  W2        596             0.0000000000
      1788       596  TIP3      H2             -3.1127005720      -45.8610824159       -7.1403363352  W2        596             0.0000000000
      1789       597  TIP3      OH2            -4.7385005720      -43.9264524159       -4.7144063352  W2        597             0.0000000000
      1790       597  TIP3      H1             -5.3859705720      -43.6013024159       -4.0888863352  W2        597             0.0000000000
      1791       597  TIP3      H2             -5.2561005720      -44.3666824159       -5.3885763352  W2        597             0.0000000000
      1792       598  TIP3      OH2            -2.7155405720      -49.6881024159      -15.5778763352  W2        598             0.0000000000
      1793       598  TIP3      H1             -3.2374305720      -49.3316924159      -16.2967863352  W2        598             0.0000000000
      1794       598  TIP3      H2             -2.7486205720      -49.0133224159      -14.8997863352  W2        598             0.0000000000
      1795       599  TIP3      OH2            -4.3666405720      -52.4485424159      -17.0271663352  W2        599             0.0000000000
      1796       599  TIP3      H1             -4.2702005720      -51.7818424159      -17.7071963352  W2        599             0.0000000000
      1797       599  TIP3      H2             -4.5066805720      -53.2639124159      -17.5086163352  W2        599             0.0000000000
      1798       600  TIP3      OH2            -5.1971705720      -51.0683024159      -11.4061363352  W2        600             0.0000000000
      1799       600  TIP3      H1             -5.3472905720      -52.0134424159      -11.4263563352  W2        600             0.0000000000
      1800       600  TIP3      H2             -5.5507205720      -50.7871624159      -10.5622263352  W2        600             0.0000000000
      1801       601  TIP3      OH2           -20.1619305720      -48.9900824159       -7.3957563352  W2        601             0.0000000000
      1802       601  TIP3      H1            -19.9776405720      -49.0719124159       -8.3314663352  W2        601             0.0000000000
      1803       601  TIP3      H2            -19.3126405720      -49.1143824159       -6.9721163352  W2        601             0.0000000000
      1804       602  TIP3      OH2            -4.3408805720      -49.0979724159       -1.7673063352  W2        602             0.0000000000
      1805       602  TIP3      H1             -3.7581505720      -49.8327424159       -1.5755863352  W2        602             0.0000000000
      1806       602  TIP3      H2             -3.7769505720      -48.3259424159       -1.7207263352  W2        602             0.0000000000
      1807       603  TIP3      OH2            -2.8441705720      -51.1953924159       -1.0827663352  W2        603             0.0000000000
      1808       603  TIP3      H1             -3.7075005720      -51.5741824159       -1.2482963352  W2        603             0.0000000000
      1809       603  TIP3      H2             -2.2398005720      -51.9339124159       -1.1571863352  W2        603             0.0000000000
      1810       604  TIP3      OH2            -5.1192605720      -55.0405624159      -17.9096163352  W2        604             0.0000000000
      1811       604  TIP3      H1             -4.5086805720      -55.4118824159      -17.2727963352  W2        604             0.0000000000
      1812       604  TIP3      H2             -5.9561105720      -55.4618724159      -17.7136163352  W2        604             0.0000000000
      1813       605  TIP3      OH2            -5.4866905720      -53.4857224159      -12.9436263352  W2        605             0.0000000000
      1814       605  TIP3      H1             -5.2069805720      -54.3926824159      -12.8194563352  W2        605             0.0000000000
      1815       605  TIP3      H2             -4.7275205720      -53.0515724159      -13.3327063352  W2        605             0.0000000000
      1816       606  TIP3      OH2            -4.8748605720      -52.9039824159       -7.5077363352  W2        606             0.0000000000
      1817       606  TIP3      H1             -3.9420605720      -52.6919924159       -7.5421363352  W2        606             0.0000000000
      1818       606  TIP3      H2             -5.1101105720      -52.8027724159       -6.5854363352  W2        606             0.0000000000
      1819       607  TIP3      OH2            -4.8456705720      -52.1674524159       -4.7317963352  W2        607             0.0000000000
      1820       607  TIP3      H1             -5.6885405720      -51.8994124159       -4.3658163352  W2        607             0.0000000000
      1821       607  TIP3      H2             -4.4032405720      -51.3452624159       -4.9426863352  W2        607             0.0000000000
      1822       608  TIP3      OH2           -20.5644505720      -53.7195824159       -1.2548763352  W2        608             0.0000000000
      1823       608  TIP3      H1            -19.6449605720      -53.8417524159       -1.0185663352  W2        608             0.0000000000
      1824       608  TIP3      H2            -21.0140005720      -54.4696124159       -0.8655263352  W2        608             0.0000000000
      1825       609  TIP3      OH2            -2.5625105720      -58.1874324159        0.6217036648  W2        609             0.0000000000
      1826       609  TIP3      H1             -2.2128105720      -58.8410824159        0.0161736648  W2        609             0.0000000000
      1827       609  TIP3      H2             -2.4155605720      -57.3500224159        0.1819636648  W2        609             0.0000000000
      1828       610  TIP3      OH2            -4.8732105720      -56.2227924159      -12.8954263352  W2        610             0.0000000000
      1829       610  TIP3      H1             -4.6907105720      -56.6716424159      -12.0699263352  W2        610             0.0000000000
      1830       610  TIP3      H2             -5.4729205720      -56.8073524159      -13.3589663352  W2        610             0.0000000000
      1831       611  TIP3      OH2           -19.3432005720      -55.4074224159       -8.3635863352  W2        611             0.0000000000
      1832       611  TIP3      H1            -18.8980405720      -56.1991724159       -8.0616163352  W2        611             0.0000000000
      1833       611  TIP3      H2            -18.8769005720      -54.6909024159       -7.9330263352  W2        611             0.0000000000
      1834       612  TIP3      OH2           -21.0391705720      -52.4081224159       -7.2945663352  W2        612             0.0000000000
      1835       612  TIP3      H1            -20.5471905720      -52.6290724159       -8.0853663352  W2        612             0.0000000000
      1836       612  TIP3      H2            -20.6770805720      -51.5677824159       -7.0136163352  W2        612             0.0000000000
      1837       613  TIP3      OH2            -3.0427905720      -56.0779724159       -1.0291663352  W2        613             0.0000000000
      1838       613  TIP3      H1             -3.9602205720      -55.8072624159       -1.0648163352  W2        613             0.0000000000
      1839       613  TIP3      H2             -2.9198505720      -56.6131324159       -1.8131963352  W2        613             0.0000000000
      1840       614  TIP3      OH2            -3.0065905720      -56.1549824159      -16.3673963352  W2        614             0.0000000000
      1841       614  TIP3      H1             -2.5943305720      -56.8764124159      -16.8425963352  W2        614             0.0000000000
      1842       614  TIP3      H2             -2.3249405720      -55.4855224159      -16.3089663352  W2        614             0.0000000000
      1843       615  TIP3      OH2           -20.7255205720      -56.1502124159      -13.2403263352  W2        615             0.0000000000
      1844       615  TIP3      H1            -21.6506805720      -55.9415524159      -13.3697763352  W2        615             0.0000000000
      1845       615  TIP3      H2            -20.2715305720      -55.6661324159      -13.9300963352  W2        615             0.0000000000
      1846       616  TIP3      OH2            -5.9548005720      -41.1660424159      -11.2945863352  W2        616             0.0000000000
      1847       616  TIP3      H1             -5.3025105720      -41.5138324159      -11.9026763352  W2        616             0.0000000000
      1848       616  TIP3      H2             -5.4444205720      -40.6777224159      -10.6486163352  W2        616             0.0000000000
      1849       617  TIP3      OH2           -20.7619805720      -57.4123124159       -4.8960763352  W2        617             0.0000000000
      1850       617  TIP3      H1            -21.4269305720      -57.6582824159       -4.2529863352  W2        617             0.0000000000
      1851       617  TIP3      H2            -21.2048505720      -56.7902724159       -5.4732763352  W2        617             0.0000000000
      1852       618  TIP3      OH2           -18.5700505720      -44.2369024159       -0.7514963352  W2        618             0.0000000000
      1853       618  TIP3      H1            -19.3908005720      -44.0622524159       -1.2120263352  W2        618             0.0000000000
      1854       618  TIP3      H2            -18.8222705720      -44.3104324159        0.1689436648  W2        618             0.0000000000
      1855       619  TIP3      OH2           -15.6157605720      -43.2627824159       -4.4930963352  W2        619             0.0000000000
      1856       619  TIP3      H1            -16.0406505720      -42.4529324159       -4.7756363352  W2        619             0.0000000000
      1857       619  TIP3      H2            -14.7114805720      -43.1773724159       -4.7951163352  W2        619             0.0000000000
      1858       620  TIP3      OH2           -11.3046205720      -41.8637824159       -1.5337263352  W2        620             0.0000000000
      1859       620  TIP3      H1            -11.1198705720      -42.1971724159       -0.6556963352  W2        620             0.0000000000
      1860       620  TIP3      H2            -10.4581705720      -41.5539224159       -1.8558063352  W2        620             0.0000000000
      1861       621  TIP3      OH2            -8.9595805720      -40.5778924159       -2.2895863352  W2        621             0.0000000000
      1862       621  TIP3      H1             -8.2826905720      -41.2106624159       -2.5296663352  W2        621             0.0000000000
      1863       621  TIP3      H2             -8.6377005720      -40.1768424159       -1.4822563352  W2        621             0.0000000000
      1864       622  TIP3      OH2            -4.0422005720      -57.9883424159       -3.2100863352  W2        622             0.0000000000
      1865       622  TIP3      H1             -4.8548505720      -57.6633124159       -3.5976163352  W2        622             0.0000000000
      1866       622  TIP3      H2             -3.8093505720      -58.7484924159       -3.7431763352  W2        622             0.0000000000
      1867       623  TIP3      OH2           -18.2140905720      -40.0063924159       -4.4455663352  W2        623             0.0000000000
      1868       623  TIP3      H1            -18.9344505720      -39.5662924159       -4.8967963352  W2        623             0.0000000000
      1869       623  TIP3      H2            -18.5796905720      -40.2569224159       -3.5971663352  W2        623             0.0000000000
      1870       624  TIP3      OH2           -15.7468305720      -40.4060024159       -5.4158463352  W2        624             0.0000000000
      1871       624  TIP3      H1            -16.6116105720      -40.3341524159       -5.0118363352  W2        624             0.0000000000
      1872       624  TIP3      H2            -15.8019305720      -39.8592724159       -6.1995963352  W2        624             0.0000000000
      1873       625  TIP3      OH2           -11.0362705720      -40.5181124159       -6.2402463352  W2        625             0.0000000000
      1874       625  TIP3      H1            -11.4928705720      -39.9891424159       -6.8944063352  W2        625             0.0000000000
      1875       625  TIP3      H2            -10.8734705720      -39.9149724159       -5.5150163352  W2        625             0.0000000000
      1876       626  TIP3      OH2            -8.7086405720      -41.6401524159       -5.2952163352  W2        626             0.0000000000
      1877       626  TIP3      H1             -9.6132705720      -41.4751324159       -5.5610063352  W2        626             0.0000000000
      1878       626  TIP3      H2             -8.2797805720      -40.7869324159       -5.3608763352  W2        626             0.0000000000
      1879       627  TIP3      OH2            -6.1044505720      -40.0702424159       -5.0004363352  W2        627             0.0000000000
      1880       627  TIP3      H1             -6.2862505720      -39.1543524159       -5.2109463352  W2        627             0.0000000000
      1881       627  TIP3      H2             -5.9276705720      -40.4805324159       -5.8469763352  W2        627             0.0000000000
      1882       628  TIP3      OH2           -18.7992805720      -41.3831424159       -7.5353863352  W2        628             0.0000000000
      1883       628  TIP3      H1            -18.8176805720      -41.8086324159       -6.6781563352  W2        628             0.0000000000
      1884       628  TIP3      H2            -17.9944905720      -41.7016424159       -7.9441663352  W2        628             0.0000000000
      1885       629  TIP3      OH2           -16.6579705720      -42.6732724159       -8.8803963352  W2        629             0.0000000000
      1886       629  TIP3      H1            -16.8769005720      -43.5895324159       -8.7107963352  W2        629             0.0000000000
      1887       629  TIP3      H2            -15.8337505720      -42.5332324159       -8.4142563352  W2        629             0.0000000000
      1888       630  TIP3      OH2           -14.1207205720      -42.2033424159       -8.0315963352  W2        630             0.0000000000
      1889       630  TIP3      H1            -13.9081505720      -43.0914424159       -8.3185063352  W2        630             0.0000000000
      1890       630  TIP3      H2            -14.0562105720      -42.2375724159       -7.0771963352  W2        630             0.0000000000
      1891       631  TIP3      OH2           -10.6123505720      -56.5392824159       -8.8872663352  W2        631             0.0000000000
      1892       631  TIP3      H1            -11.2866705720      -57.1687224159       -8.6316863352  W2        631             0.0000000000
      1893       631  TIP3      H2            -10.0484305720      -57.0233924159       -9.4904763352  W2        631             0.0000000000
      1894       632  TIP3      OH2            -5.4696305720      -58.4318824159       -8.7745563352  W2        632             0.0000000000
      1895       632  TIP3      H1             -4.8658705720      -57.8843424159       -9.2764563352  W2        632             0.0000000000
      1896       632  TIP3      H2             -6.3394305720      -58.1128424159       -9.0151463352  W2        632             0.0000000000
      1897       633  TIP3      OH2            -3.7425905720      -57.2930124159      -10.4414663352  W2        633             0.0000000000
      1898       633  TIP3      H1             -3.1308405720      -57.8074424159      -10.9681063352  W2        633             0.0000000000
      1899       633  TIP3      H2             -3.3602505720      -56.4158024159      -10.4180263352  W2        633             0.0000000000
      1900       634  TIP3      OH2           -18.2856005720      -57.9052524159      -11.0652763352  W2        634             0.0000000000
      1901       634  TIP3      H1            -19.0626205720      -58.1397624159      -11.5726863352  W2        634             0.0000000000
      1902       634  TIP3      H2            -17.7552405720      -58.7020424159      -11.0564763352  W2        634             0.0000000000
      1903       635  TIP3      OH2           -19.4492605720      -58.1074424159      -15.2616663352  W2        635             0.0000000000
      1904       635  TIP3      H1            -19.0101905720      -57.4963924159      -15.8533163352  W2        635             0.0000000000
      1905       635  TIP3      H2            -20.0830205720      -57.5690324159      -14.7876663352  W2        635             0.0000000000
      1906       636  TIP3      OH2           -13.7063405720      -57.9785424159      -11.2519663352  W2        636             0.0000000000
      1907       636  TIP3      H1            -12.8320005720      -57.5901124159      -11.2815363352  W2        636             0.0000000000
      1908       636  TIP3      H2            -13.8422605720      -58.1937624159      -10.3292463352  W2        636             0.0000000000
      1909       637  TIP3      OH2            -8.1495005720      -57.9485624159       -9.6027963352  W2        637             0.0000000000
      1910       637  TIP3      H1             -8.0733405720      -57.8534024159      -10.5521963352  W2        637             0.0000000000
      1911       637  TIP3      H2             -8.4245805720      -58.8562724159       -9.4738863352  W2        637             0.0000000000
      1912       638  TIP3      OH2            -6.7962405720      -57.9227824159      -13.9102963352  W2        638             0.0000000000
      1913       638  TIP3      H1             -7.4991305720      -57.3078624159      -14.1201563352  W2        638             0.0000000000
      1914       638  TIP3      H2             -7.2411005720      -58.7601124159      -13.7792063352  W2        638             0.0000000000
      1915       639  TIP3      OH2           -19.5483105720      -42.1592224159      -14.3641563352  W2        639             0.0000000000
      1916       639  TIP3      H1            -20.2333205720      -42.1973324159      -15.0316463352  W2        639             0.0000000000
      1917       639  TIP3      H2            -19.5445905720      -41.2464624159      -14.0759463352  W2        639             0.0000000000
      1918       640  TIP3      OH2           -17.5883505720      -56.1912924159      -16.8192563352  W2        640             0.0000000000
      1919       640  TIP3      H1            -17.0970105720      -56.8210524159      -17.3467063352  W2        640             0.0000000000
      1920       640  TIP3      H2            -16.9647205720      -55.8953524159      -16.1561363352  W2        640             0.0000000000
      1921       641  TIP3      OH2           -12.5623405720      -55.8981424159      -14.3622063352  W2        641             0.0000000000
      1922       641  TIP3      H1            -12.3842105720      -56.5448224159      -13.6793463352  W2        641             0.0000000000
      1923       641  TIP3      H2            -12.6157205720      -55.0643724159      -13.8950963352  W2        641             0.0000000000
      1924       642  TIP3      OH2           -10.6839605720      -40.9497324159      -15.9665363352  W2        642             0.0000000000
      1925       642  TIP3      H1             -9.8179405720      -40.5829924159      -16.1447163352  W2        642             0.0000000000
      1926       642  TIP3      H2            -10.9306805720      -41.3889324159      -16.7804563352  W2        642             0.0000000000
      1927       643  TIP3      OH2            -3.9750005720      -41.3867024159      -13.2874263352  W2        643             0.0000000000
      1928       643  TIP3      H1             -4.1692905720      -42.1344924159      -13.8524663352  W2        643             0.0000000000
      1929       643  TIP3      H2             -4.0139905720      -40.6286924159      -13.8706363352  W2        643             0.0000000000
      1930       644  TIP3      OH2           -18.3278005720      -57.3910624159       -1.5476563352  W2        644             0.0000000000
      1931       644  TIP3      H1            -18.6939805720      -58.1568024159       -1.1051863352  W2        644             0.0000000000
      1932       644  TIP3      H2            -17.4149505720      -57.3620424159       -1.2611463352  W2        644             0.0000000000
      1933       645  TIP3      OH2           -16.3547205720      -58.0406224159       -0.0119463352  W2        645             0.0000000000
      1934       645  TIP3      H1            -15.4563605720      -58.3146024159       -0.1966063352  W2        645             0.0000000000
      1935       645  TIP3      H2            -16.7414105720      -58.7830224159        0.4523136648  W2        645             0.0000000000
      1936       646  TIP3      OH2           -17.7301905720      -41.2391424159      -17.3389463352  W2        646             0.0000000000
      1937       646  TIP3      H1            -17.9977305720      -40.9528524159      -16.4656363352  W2        646             0.0000000000
      1938       646  TIP3      H2            -16.9589305720      -41.7852224159      -17.1866963352  W2        646             0.0000000000
      1939       647  TIP3      OH2            -7.9334905720      -58.7080924159        0.1703336648  W2        647             0.0000000000
      1940       647  TIP3      H1             -7.8567705720      -59.1340224159        1.0241036648  W2        647             0.0000000000
      1941       647  TIP3      H2             -7.0398305720      -58.6946224159       -0.1723163352  W2        647             0.0000000000
      1942       648  TIP3      OH2            -4.7573805720      -42.6354624159       -1.1372463352  W2        648             0.0000000000
      1943       648  TIP3      H1             -5.5391905720      -42.8216624159       -1.6571863352  W2        648             0.0000000000
      1944       648  TIP3      H2             -4.8293905720      -41.7060324159       -0.9199963352  W2        648             0.0000000000
      1945       649  TIP3      OH2             9.6486594280      -48.7490224159      -11.1065263352  W2        649             0.0000000000
      1946       649  TIP3      H1              9.7377694280      -47.8052024159      -11.2388163352  W2        649             0.0000000000
      1947       649  TIP3      H2              9.0104194280      -49.0243824159      -11.7645863352  W2        649             0.0000000000
      1948       650  TIP3      OH2             8.5817894280      -49.4939524159       -7.6877063352  W2        650             0.0000000000
      1949       650  TIP3      H1              8.5435394280      -50.1403224159       -6.9827463352  W2        650             0.0000000000
      1950       650  TIP3      H2              8.2594394280      -49.9605124159       -8.4588363352  W2        650             0.0000000000
      1951       651  TIP3      OH2             0.9502894280      -49.8797424159       -6.0947163352  W2        651             0.0000000000
      1952       651  TIP3      H1              0.9914994280      -50.5054124159       -5.3714763352  W2        651             0.0000000000
      1953       651  TIP3      H2              1.6530594280      -49.2558824159       -5.9126763352  W2        651             0.0000000000
      1954       652  TIP3      OH2            12.2878094280      -46.5549124159       -9.3861963352  W2        652             0.0000000000
      1955       652  TIP3      H1             11.8470794280      -47.2753124159       -8.9356363352  W2        652             0.0000000000
      1956       652  TIP3      H2             12.2747794280      -45.8341924159       -8.7564263352  W2        652             0.0000000000
      1957       653  TIP3      OH2             1.8735994280      -45.4298524159       -7.5598063352  W2        653             0.0000000000
      1958       653  TIP3      H1              1.5041194280      -46.2318024159       -7.9293763352  W2        653             0.0000000000
      1959       653  TIP3      H2              2.8147094280      -45.5983624159       -7.5134663352  W2        653             0.0000000000
      1960       654  TIP3      OH2            -1.5163505720      -51.7695924159      -12.1669263352  W2        654             0.0000000000
      1961       654  TIP3      H1             -1.9640105720      -50.9237224159      -12.1852763352  W2        654             0.0000000000
      1962       654  TIP3      H2             -2.0772305720      -52.3491724159      -12.6824163352  W2        654             0.0000000000
      1963       655  TIP3      OH2            -0.8057405720      -49.6076324159      -10.0411263352  W2        655             0.0000000000
      1964       655  TIP3      H1             -0.5923905720      -50.3774724159       -9.5138263352  W2        655             0.0000000000
      1965       655  TIP3      H2             -0.0679805720      -49.5179624159      -10.6443663352  W2        655             0.0000000000
      1966       656  TIP3      OH2             9.3993594280      -41.4507424159       -9.1741563352  W2        656             0.0000000000
      1967       656  TIP3      H1             10.0189994280      -42.1272724159       -9.4472363352  W2        656             0.0000000000
      1968       656  TIP3      H2              9.1910994280      -41.6686624159       -8.2656663352  W2        656             0.0000000000
      1969       657  TIP3      OH2             6.9712294280      -47.0618124159       -7.2816063352  W2        657             0.0000000000
      1970       657  TIP3      H1              7.2750194280      -47.7476724159       -7.8761963352  W2        657             0.0000000000
      1971       657  TIP3      H2              7.6926294280      -46.9429424159       -6.6638063352  W2        657             0.0000000000
      1972       658  TIP3      OH2            15.6342094280      -55.4602824159       -6.4209863352  W2        658             0.0000000000
      1973       658  TIP3      H1             15.6834294280      -54.8501624159       -5.6850763352  W2        658             0.0000000000
      1974       658  TIP3      H2             16.0597194280      -54.9991924159       -7.1438763352  W2        658             0.0000000000
      1975       659  TIP3      OH2            10.1119294280      -52.6675724159       -6.9541263352  W2        659             0.0000000000
      1976       659  TIP3      H1             10.2545194280      -53.6138724159       -6.9339663352  W2        659             0.0000000000
      1977       659  TIP3      H2             10.0058294280      -52.4605924159       -7.8826363352  W2        659             0.0000000000
      1978       660  TIP3      OH2             3.2667594280      -54.5659324159       -9.6816463352  W2        660             0.0000000000
      1979       660  TIP3      H1              3.3098694280      -53.7060824159      -10.1000163352  W2        660             0.0000000000
      1980       660  TIP3      H2              2.8091694280      -55.1184624159      -10.3153263352  W2        660             0.0000000000
      1981       661  TIP3      OH2            10.9890294280      -54.4353724159      -11.2808163352  W2        661             0.0000000000
      1982       661  TIP3      H1             11.6354594280      -54.7640524159      -10.6560563352  W2        661             0.0000000000
      1983       661  TIP3      H2             11.4989694280      -53.9174724159      -11.9036763352  W2        661             0.0000000000
      1984       662  TIP3      OH2            -0.1130905720      -52.1693524159       -8.9195063352  W2        662             0.0000000000
      1985       662  TIP3      H1              0.5405694280      -52.7191824159       -8.4874963352  W2        662             0.0000000000
      1986       662  TIP3      H2             -0.0891605720      -52.4434524159       -9.8363063352  W2        662             0.0000000000
      1987       663  TIP3      OH2             5.0433594280      -50.6192224159       -9.7043563352  W2        663             0.0000000000
      1988       663  TIP3      H1              5.6594594280      -51.1456824159       -9.1949563352  W2        663             0.0000000000
      1989       663  TIP3      H2              4.4572394280      -51.2593524159      -10.1079963352  W2        663             0.0000000000
      1990       664  TIP3      OH2            16.0256694280      -53.9823624159       -4.1850063352  W2        664             0.0000000000
      1991       664  TIP3      H1             15.3371294280      -53.3242924159       -4.2803463352  W2        664             0.0000000000
      1992       664  TIP3      H2             16.0411294280      -54.1795724159       -3.2484663352  W2        664             0.0000000000
      1993       665  TIP3      OH2             2.0769494280      -55.6480924159       -5.6075663352  W2        665             0.0000000000
      1994       665  TIP3      H1              1.8581194280      -55.1180324159       -6.3739663352  W2        665             0.0000000000
      1995       665  TIP3      H2              1.4090394280      -55.4215424159       -4.9604263352  W2        665             0.0000000000
      1996       666  TIP3      OH2             9.4459294280      -46.1479824159      -12.0636563352  W2        666             0.0000000000
      1997       666  TIP3      H1              9.1504394280      -46.4707524159      -12.9149663352  W2        666             0.0000000000
      1998       666  TIP3      H2              9.1217094280      -45.2483124159      -12.0223963352  W2        666             0.0000000000
      1999       667  TIP3      OH2             4.6460894280      -47.9725224159       -5.3201963352  W2        667             0.0000000000
      2000       667  TIP3      H1              3.9059994280      -47.3743724159       -5.2166763352  W2        667             0.0000000000
      2001       667  TIP3      H2              5.3600394280      -47.4185624159       -5.6358363352  W2        667             0.0000000000
      2002       668  TIP3      OH2            12.7528694280      -55.1444424159       -9.3002263352  W2        668             0.0000000000
      2003       668  TIP3      H1             12.5376694280      -55.9101024159       -8.7676263352  W2        668             0.0000000000
      2004       668  TIP3      H2             13.4086094280      -54.6719824159       -8.7873763352  W2        668             0.0000000000
      2005       669  TIP3      OH2             1.6706794280      -53.7559124159       -7.6553463352  W2        669             0.0000000000
      2006       669  TIP3      H1              2.2843094280      -53.1231524159       -7.2821063352  W2        669             0.0000000000
      2007       669  TIP3      H2              2.1827494280      -54.2284124159       -8.3116563352  W2        669             0.0000000000
      2008       670  TIP3      OH2             3.0535194280      -46.0082224159       -4.5330463352  W2        670             0.0000000000
      2009       670  TIP3      H1              3.0482794280      -45.1288724159       -4.9111163352  W2        670             0.0000000000
      2010       670  TIP3      H2              2.1999294280      -46.0918124159       -4.1080563352  W2        670             0.0000000000
      2011       671  TIP3      OH2            -0.8253905720      -46.3374324159      -13.7511163352  W2        671             0.0000000000
      2012       671  TIP3      H1             -1.0973005720      -46.1083324159      -14.6398263352  W2        671             0.0000000000
      2013       671  TIP3      H2             -0.7798205720      -45.4995524159      -13.2905863352  W2        671             0.0000000000
      2014       672  TIP3      OH2            12.7995794280      -44.7158424159       -7.0382663352  W2        672             0.0000000000
      2015       672  TIP3      H1             11.8579494280      -44.6574524159       -6.8765763352  W2        672             0.0000000000
      2016       672  TIP3      H2             13.0761894280      -43.8097924159       -7.1752963352  W2        672             0.0000000000
      2017       673  TIP3      OH2            13.1002794280      -56.4293124159       -5.6208763352  W2        673             0.0000000000
      2018       673  TIP3      H1             12.3641994280      -55.8186024159       -5.6587463352  W2        673             0.0000000000
      2019       673  TIP3      H2             13.7836794280      -56.0144124159       -6.1472363352  W2        673             0.0000000000
      2020       674  TIP3      OH2             6.1034194280      -58.3425824159       -8.1550763352  W2        674             0.0000000000
      2021       674  TIP3      H1              5.9858394280      -59.2909824159       -8.2092463352  W2        674             0.0000000000
      2022       674  TIP3      H2              5.2484294280      -58.0099724159       -7.8819663352  W2        674             0.0000000000
      2023       675  TIP3      OH2            11.0516994280      -42.9344924159      -10.4131063352  W2        675             0.0000000000
      2024       675  TIP3      H1             11.4769294280      -43.6417024159      -10.8981463352  W2        675             0.0000000000
      2025       675  TIP3      H2             11.3686994280      -42.1332224159      -10.8298863352  W2        675             0.0000000000
      2026       676  TIP3      OH2            12.2113494280      -45.0336424159      -11.9044463352  W2        676             0.0000000000
      2027       676  TIP3      H1             11.9538294280      -45.7236324159      -12.5158563352  W2        676             0.0000000000
      2028       676  TIP3      H2             12.2824294280      -45.4765224159      -11.0588563352  W2        676             0.0000000000
      2029       677  TIP3      OH2            13.8973694280      -46.4669724159       -3.4270963352  W2        677             0.0000000000
      2030       677  TIP3      H1             14.0369994280      -47.0587224159       -4.1663963352  W2        677             0.0000000000
      2031       677  TIP3      H2             14.0646494280      -45.5943824159       -3.7832163352  W2        677             0.0000000000
      2032       678  TIP3      OH2             8.3699094280      -49.5050224159      -13.6544963352  W2        678             0.0000000000
      2033       678  TIP3      H1              7.6584594280      -48.9700524159      -14.0064463352  W2        678             0.0000000000
      2034       678  TIP3      H2              9.0608694280      -49.4498124159      -14.3146063352  W2        678             0.0000000000
      2035       679  TIP3      OH2             8.4238294280      -51.0475924159      -16.6159963352  W2        679             0.0000000000
      2036       679  TIP3      H1              9.1248194280      -51.0249024159      -15.9645963352  W2        679             0.0000000000
      2037       679  TIP3      H2              8.7261194280      -51.6756224159      -17.2720663352  W2        679             0.0000000000
      2038       680  TIP3      OH2            15.7392994280      -50.1271724159       -5.3610563352  W2        680             0.0000000000
      2039       680  TIP3      H1             15.0867094280      -49.4326124159       -5.2719663352  W2        680             0.0000000000
      2040       680  TIP3      H2             16.2043294280      -49.9170824159       -6.1708963352  W2        680             0.0000000000
      2041       681  TIP3      OH2            11.7756794280      -49.2956924159      -12.7029063352  W2        681             0.0000000000
      2042       681  TIP3      H1             11.0437794280      -49.0673224159      -12.1298463352  W2        681             0.0000000000
      2043       681  TIP3      H2             12.2228994280      -50.0094224159      -12.2481563352  W2        681             0.0000000000
      2044       682  TIP3      OH2            11.6730294280      -51.1214324159       -3.6352063352  W2        682             0.0000000000
      2045       682  TIP3      H1             11.7529394280      -50.3579924159       -3.0633563352  W2        682             0.0000000000
      2046       682  TIP3      H2             11.0717994280      -50.8421924159       -4.3256963352  W2        682             0.0000000000
      2047       683  TIP3      OH2             3.4210494280      -48.6650724159      -10.8204063352  W2        683             0.0000000000
      2048       683  TIP3      H1              3.0905694280      -49.0357324159      -11.6387063352  W2        683             0.0000000000
      2049       683  TIP3      H2              4.0094594280      -49.3356724159      -10.4735763352  W2        683             0.0000000000
      2050       684  TIP3      OH2             4.7877994280      -45.2370124159       -8.1391863352  W2        684             0.0000000000
      2051       684  TIP3      H1              4.6929294280      -45.8157024159       -8.8957263352  W2        684             0.0000000000
      2052       684  TIP3      H2              5.5171594280      -45.6084424159       -7.6429063352  W2        684             0.0000000000
      2053       685  TIP3      OH2             3.7875994280      -49.8965124159       -7.1869063352  W2        685             0.0000000000
      2054       685  TIP3      H1              4.3528494280      -49.7750924159       -7.9497863352  W2        685             0.0000000000
      2055       685  TIP3      H2              4.1064894280      -49.2590124159       -6.5480563352  W2        685             0.0000000000
      2056       686  TIP3      OH2            10.0968194280      -44.3933224159       -6.4528563352  W2        686             0.0000000000
      2057       686  TIP3      H1              9.8564794280      -43.7310124159       -5.8049363352  W2        686             0.0000000000
      2058       686  TIP3      H2              9.8986394280      -45.2278024159       -6.0278963352  W2        686             0.0000000000
      2059       687  TIP3      OH2             4.6676694280      -45.4972424159       -2.4697163352  W2        687             0.0000000000
      2060       687  TIP3      H1              4.3564194280      -44.7149224159       -2.0143963352  W2        687             0.0000000000
      2061       687  TIP3      H2              4.0176894280      -45.6503324159       -3.1555163352  W2        687             0.0000000000
      2062       688  TIP3      OH2            10.6466294280      -50.1334024159      -15.0177863352  W2        688             0.0000000000
      2063       688  TIP3      H1             11.2261794280      -49.9833724159      -14.2708963352  W2        688             0.0000000000
      2064       688  TIP3      H2             11.0606294280      -49.6626624159      -15.7411463352  W2        688             0.0000000000
      2065       689  TIP3      OH2             1.5876594280      -49.2991324159       -3.2411463352  W2        689             0.0000000000
      2066       689  TIP3      H1              1.6579794280      -48.6484524159       -2.5426463352  W2        689             0.0000000000
      2067       689  TIP3      H2              0.6968794280      -49.1963824159       -3.5760563352  W2        689             0.0000000000
      2068       690  TIP3      OH2             8.3731194280      -43.3965524159      -11.5824763352  W2        690             0.0000000000
      2069       690  TIP3      H1              8.8468794280      -43.1009224159      -10.8050563352  W2        690             0.0000000000
      2070       690  TIP3      H2              7.8100494280      -42.6583924159      -11.8155163352  W2        690             0.0000000000
      2071       691  TIP3      OH2             2.9072594280      -43.4257424159       -1.7063363352  W2        691             0.0000000000
      2072       691  TIP3      H1              2.9147894280      -43.5617724159       -2.6537863352  W2        691             0.0000000000
      2073       691  TIP3      H2              1.9912994280      -43.5429324159       -1.4543363352  W2        691             0.0000000000
      2074       692  TIP3      OH2            14.3454694280      -58.3833624159      -15.2048163352  W2        692             0.0000000000
      2075       692  TIP3      H1             13.4455394280      -58.2444624159      -14.9097563352  W2        692             0.0000000000
      2076       692  TIP3      H2             14.5973094280      -57.5519024159      -15.6066463352  W2        692             0.0000000000
      2077       693  TIP3      OH2             2.4113194280      -49.5956424159      -13.2311263352  W2        693             0.0000000000
      2078       693  TIP3      H1              2.1194494280      -48.8274724159      -13.7219963352  W2        693             0.0000000000
      2079       693  TIP3      H2              1.7368394280      -50.2550224159      -13.3939863352  W2        693             0.0000000000
      2080       694  TIP3      OH2            15.5346094280      -44.0171224159      -16.8284263352  W2        694             0.0000000000
      2081       694  TIP3      H1             15.6079594280      -43.0781024159      -16.6578963352  W2        694             0.0000000000
      2082       694  TIP3      H2             16.4401194280      -44.3222624159      -16.8846963352  W2        694             0.0000000000
      2083       695  TIP3      OH2            -1.4956705720      -47.2327224159       -4.4161463352  W2        695             0.0000000000
      2084       695  TIP3      H1             -1.9968305720      -47.2607824159       -5.2311763352  W2        695             0.0000000000
      2085       695  TIP3      H2             -1.4903005720      -48.1384024159       -4.1064163352  W2        695             0.0000000000
      2086       696  TIP3      OH2            -1.7454005720      -44.4523424159       -7.5321263352  W2        696             0.0000000000
      2087       696  TIP3      H1             -0.7993405720      -44.5966424159       -7.5511763352  W2        696             0.0000000000
      2088       696  TIP3      H2             -1.8577705720      -43.6680624159       -6.9950063352  W2        696             0.0000000000
      2089       697  TIP3      OH2            16.4524494280      -43.7863724159       -1.8497563352  W2        697             0.0000000000
      2090       697  TIP3      H1             16.4031294280      -44.7415624159       -1.8869963352  W2        697             0.0000000000
      2091       697  TIP3      H2             15.6256794280      -43.5188424159       -1.4483763352  W2        697             0.0000000000
      2092       698  TIP3      OH2             7.4308494280      -44.2124524159       -2.9736163352  W2        698             0.0000000000
      2093       698  TIP3      H1              7.5183094280      -43.3859924159       -2.4987063352  W2        698             0.0000000000
      2094       698  TIP3      H2              6.5673594280      -44.5420724159       -2.7246863352  W2        698             0.0000000000
      2095       699  TIP3      OH2             7.8454294280      -40.4400824159      -13.1675563352  W2        699             0.0000000000
      2096       699  TIP3      H1              7.7700294280      -40.5613624159      -14.1140363352  W2        699             0.0000000000
      2097       699  TIP3      H2              7.8782994280      -39.4908124159      -13.0490963352  W2        699             0.0000000000
      2098       700  TIP3      OH2             1.4988094280      -41.6513824159      -11.3866563352  W2        700             0.0000000000
      2099       700  TIP3      H1              1.6508494280      -41.9993424159      -10.5080063352  W2        700             0.0000000000
      2100       700  TIP3      H2              0.6478494280      -42.0076524159      -11.6419363352  W2        700             0.0000000000
      2101       701  TIP3      OH2            10.9470294280      -41.2860624159      -16.1653163352  W2        701             0.0000000000
      2102       701  TIP3      H1             11.3218694280      -42.0304524159      -16.6360563352  W2        701             0.0000000000
      2103       701  TIP3      H2             10.9513994280      -41.5560024159      -15.2469863352  W2        701             0.0000000000
      2104       702  TIP3      OH2            10.6158394280      -41.3603524159      -13.4160963352  W2        702             0.0000000000
      2105       702  TIP3      H1              9.6808194280      -41.2601624159      -13.2373963352  W2        702             0.0000000000
      2106       702  TIP3      H2             10.8960294280      -42.0697524159      -12.8377763352  W2        702             0.0000000000
      2107       703  TIP3      OH2            13.6044294280      -52.2931224159       -1.3695363352  W2        703             0.0000000000
      2108       703  TIP3      H1             13.1971094280      -51.8125624159       -2.0902063352  W2        703             0.0000000000
      2109       703  TIP3      H2             13.6449994280      -53.1985224159       -1.6774563352  W2        703             0.0000000000
      2110       704  TIP3      OH2             0.7533794280      -45.9091824159       -3.3728663352  W2        704             0.0000000000
      2111       704  TIP3      H1              0.9695094280      -46.2706224159       -2.5132863352  W2        704             0.0000000000
      2112       704  TIP3      H2             -0.1021505720      -46.2838024159       -3.5825163352  W2        704             0.0000000000
      2113       705  TIP3      OH2             3.3721794280      -57.4391324159       -7.3774463352  W2        705             0.0000000000
      2114       705  TIP3      H1              2.5105494280      -57.5263124159       -7.7851563352  W2        705             0.0000000000
      2115       705  TIP3      H2              3.3497494280      -56.5831224159       -6.9496863352  W2        705             0.0000000000
      2116       706  TIP3      OH2             8.0349594280      -57.7170924159       -4.0027463352  W2        706             0.0000000000
      2117       706  TIP3      H1              8.4552694280      -58.1323824159       -3.2496863352  W2        706             0.0000000000
      2118       706  TIP3      H2              7.1019194280      -57.8957624159       -3.8855463352  W2        706             0.0000000000
      2119       707  TIP3      OH2            11.3614494280      -53.9615724159       -3.1492963352  W2        707             0.0000000000
      2120       707  TIP3      H1             10.8473994280      -54.0873524159       -2.3516963352  W2        707             0.0000000000
      2121       707  TIP3      H2             11.2059194280      -53.0492624159       -3.3936763352  W2        707             0.0000000000
      2122       708  TIP3      OH2            12.1239394280      -49.1005724159      -17.3879963352  W2        708             0.0000000000
      2123       708  TIP3      H1             12.1660194280      -49.3231824159      -18.3179963352  W2        708             0.0000000000
      2124       708  TIP3      H2             12.9731494280      -48.7018624159      -17.1980063352  W2        708             0.0000000000
      2125       709  TIP3      OH2             7.6966894280      -55.2247524159      -16.7176663352  W2        709             0.0000000000
      2126       709  TIP3      H1              7.4431694280      -55.2055924159      -15.7948563352  W2        709             0.0000000000
      2127       709  TIP3      H2              7.4398994280      -56.0962124159      -17.0190463352  W2        709             0.0000000000
      2128       710  TIP3      OH2             3.4631894280      -52.4736824159       -6.2824263352  W2        710             0.0000000000
      2129       710  TIP3      H1              2.8213994280      -52.5139524159       -5.5734163352  W2        710             0.0000000000
      2130       710  TIP3      H2              3.5003894280      -51.5472124159       -6.5201263352  W2        710             0.0000000000
      2131       711  TIP3      OH2             3.4600994280      -52.2526724159      -11.3704263352  W2        711             0.0000000000
      2132       711  TIP3      H1              2.5673894280      -52.5930624159      -11.4290463352  W2        711             0.0000000000
      2133       711  TIP3      H2              3.9107594280      -52.6295824159      -12.1261063352  W2        711             0.0000000000
      2134       712  TIP3      OH2             8.9956494280      -51.8366424159      -12.5533463352  W2        712             0.0000000000
      2135       712  TIP3      H1              8.5866794280      -51.0217824159      -12.8448663352  W2        712             0.0000000000
      2136       712  TIP3      H2              9.7162694280      -51.9766324159      -13.1676363352  W2        712             0.0000000000
      2137       713  TIP3      OH2             8.0978094280      -51.6610024159       -1.0652763352  W2        713             0.0000000000
      2138       713  TIP3      H1              7.5351894280      -52.3658424159       -0.7444963352  W2        713             0.0000000000
      2139       713  TIP3      H2              8.9241494280      -51.7818124159       -0.5975163352  W2        713             0.0000000000
      2140       714  TIP3      OH2            10.0004194280      -52.3906024159       -9.7393763352  W2        714             0.0000000000
      2141       714  TIP3      H1              9.8048694280      -51.7849224159      -10.4543163352  W2        714             0.0000000000
      2142       714  TIP3      H2             10.1816794280      -53.2240824159      -10.1737463352  W2        714             0.0000000000
      2143       715  TIP3      OH2             1.2132394280      -52.1533324159       -4.4152263352  W2        715             0.0000000000
      2144       715  TIP3      H1              1.1751794280      -51.7531724159       -3.5465163352  W2        715             0.0000000000
      2145       715  TIP3      H2              0.7223494280      -52.9700924159       -4.3249363352  W2        715             0.0000000000
      2146       716  TIP3      OH2             4.5789794280      -54.7791024159      -17.6166263352  W2        716             0.0000000000
      2147       716  TIP3      H1              4.1480494280      -55.2240924159      -16.8868863352  W2        716             0.0000000000
      2148       716  TIP3      H2              3.8608494280      -54.4074724159      -18.1288763352  W2        716             0.0000000000
      2149       717  TIP3      OH2            -2.1786805720      -55.0371524159      -10.5647563352  W2        717             0.0000000000
      2150       717  TIP3      H1             -1.5479105720      -55.0659424159       -9.8453663352  W2        717             0.0000000000
      2151       717  TIP3      H2             -1.7292505720      -55.4622824159      -11.2951663352  W2        717             0.0000000000
      2152       718  TIP3      OH2            -0.9044705720      -54.2909524159      -15.1407163352  W2        718             0.0000000000
      2153       718  TIP3      H1             -0.4303005720      -53.6999624159      -15.7256263352  W2        718             0.0000000000
      2154       718  TIP3      H2             -1.6218305720      -53.7606624159      -14.7937063352  W2        718             0.0000000000
      2155       719  TIP3      OH2             9.2643394280      -50.7524724159       -5.0681363352  W2        719             0.0000000000
      2156       719  TIP3      H1              9.5878194280      -51.3835024159       -5.7110863352  W2        719             0.0000000000
      2157       719  TIP3      H2              8.8242694280      -51.2872524159       -4.4073963352  W2        719             0.0000000000
      2158       720  TIP3      OH2             6.0416294280      -54.8249224159      -10.2840163352  W2        720             0.0000000000
      2159       720  TIP3      H1              5.1307394280      -54.7682424159       -9.9954163352  W2        720             0.0000000000
      2160       720  TIP3      H2              6.5469194280      -54.8853724159       -9.4732963352  W2        720             0.0000000000
      2161       721  TIP3      OH2             0.8699694280      -53.1962924159      -11.4572563352  W2        721             0.0000000000
      2162       721  TIP3      H1             -0.0192305720      -53.0967424159      -11.7972963352  W2        721             0.0000000000
      2163       721  TIP3      H2              1.1664594280      -54.0379924159      -11.8034663352  W2        721             0.0000000000
      2164       722  TIP3      OH2             4.5231494280      -53.1960324159      -13.8007963352  W2        722             0.0000000000
      2165       722  TIP3      H1              5.4546994280      -53.0670324159      -13.6224863352  W2        722             0.0000000000
      2166       722  TIP3      H2              4.3081794280      -52.5266024159      -14.4503263352  W2        722             0.0000000000
      2167       723  TIP3      OH2            10.4468194280      -55.5902924159       -7.0198363352  W2        723             0.0000000000
      2168       723  TIP3      H1              9.7699794280      -55.4589824159       -6.3558663352  W2        723             0.0000000000
      2169       723  TIP3      H2              9.9613094280      -55.7453424159       -7.8300663352  W2        723             0.0000000000
      2170       724  TIP3      OH2             3.1971694280      -52.0018124159      -16.2341863352  W2        724             0.0000000000
      2171       724  TIP3      H1              2.6546794280      -52.3814324159      -16.9254263352  W2        724             0.0000000000
      2172       724  TIP3      H2              4.0306594280      -51.8073424159      -16.6627763352  W2        724             0.0000000000
      2173       725  TIP3      OH2            13.7343294280      -39.9187524159       -0.7430763352  W2        725             0.0000000000
      2174       725  TIP3      H1             13.9341994280      -39.4945624159       -1.5775463352  W2        725             0.0000000000
      2175       725  TIP3      H2             14.3896994280      -39.5749324159       -0.1360363352  W2        725             0.0000000000
      2176       726  TIP3      OH2             1.3323094280      -47.4446224159       -1.1350263352  W2        726             0.0000000000
      2177       726  TIP3      H1              2.0645494280      -47.1900324159       -0.5735763352  W2        726             0.0000000000
      2178       726  TIP3      H2              0.5521794280      -47.2400824159       -0.6194863352  W2        726             0.0000000000
      2179       727  TIP3      OH2             7.3615994280      -52.0376224159       -8.3970563352  W2        727             0.0000000000
      2180       727  TIP3      H1              7.9259394280      -52.5839624159       -8.9440963352  W2        727             0.0000000000
      2181       727  TIP3      H2              7.2139394280      -52.5594324159       -7.6082963352  W2        727             0.0000000000
      2182       728  TIP3      OH2             2.3635694280      -55.9010124159      -11.9785763352  W2        728             0.0000000000
      2183       728  TIP3      H1              2.0465194280      -56.8034824159      -12.0140363352  W2        728             0.0000000000
      2184       728  TIP3      H2              3.1449794280      -55.8992724159      -12.5314163352  W2        728             0.0000000000
      2185       729  TIP3      OH2             5.9881894280      -53.6490124159       -5.9830163352  W2        729             0.0000000000
      2186       729  TIP3      H1              5.1527194280      -53.1950624159       -5.8727763352  W2        729             0.0000000000
      2187       729  TIP3      H2              6.5122494280      -53.3731624159       -5.2310263352  W2        729             0.0000000000
      2188       730  TIP3      OH2             6.5324494280      -47.4362424159      -14.2983763352  W2        730             0.0000000000
      2189       730  TIP3      H1              5.7875494280      -47.9437124159      -14.6205863352  W2        730             0.0000000000
      2190       730  TIP3      H2              6.3981694280      -47.3874424159      -13.3518963352  W2        730             0.0000000000
      2191       731  TIP3      OH2            13.6823394280      -48.3034224159       -5.5116163352  W2        731             0.0000000000
      2192       731  TIP3      H1             14.3242194280      -47.8467924159       -6.0553963352  W2        731             0.0000000000
      2193       731  TIP3      H2             12.8520294280      -48.1901824159       -5.9742063352  W2        731             0.0000000000
      2194       732  TIP3      OH2            10.4301294280      -54.6222524159      -16.0991163352  W2        732             0.0000000000
      2195       732  TIP3      H1              9.4915494280      -54.5106924159      -16.2502363352  W2        732             0.0000000000
      2196       732  TIP3      H2             10.7273394280      -53.7655624159      -15.7925463352  W2        732             0.0000000000
      2197       733  TIP3      OH2             8.0516594280      -47.2519124159       -3.0614663352  W2        733             0.0000000000
      2198       733  TIP3      H1              7.7062694280      -47.6336724159       -2.2545063352  W2        733             0.0000000000
      2199       733  TIP3      H2              7.8516694280      -46.3185524159       -2.9901763352  W2        733             0.0000000000
      2200       734  TIP3      OH2            11.1484794280      -52.7549824159      -14.4383763352  W2        734             0.0000000000
      2201       734  TIP3      H1             12.0403794280      -52.8924824159      -14.1192563352  W2        734             0.0000000000
      2202       734  TIP3      H2             11.2048394280      -51.9643724159      -14.9750263352  W2        734             0.0000000000
      2203       735  TIP3      OH2             1.6572794280      -48.1412424159       -8.5285863352  W2        735             0.0000000000
      2204       735  TIP3      H1              2.4019994280      -48.1436724159       -9.1299363352  W2        735             0.0000000000
      2205       735  TIP3      H2              1.7349394280      -48.9648624159       -8.0470763352  W2        735             0.0000000000
      2206       736  TIP3      OH2             8.6578594280      -45.9778124159      -15.2729163352  W2        736             0.0000000000
      2207       736  TIP3      H1              8.3626994280      -45.1510224159      -14.8914363352  W2        736             0.0000000000
      2208       736  TIP3      H2              7.9548594280      -46.5971224159      -15.0767763352  W2        736             0.0000000000
      2209       737  TIP3      OH2            -1.3347505720      -49.6805524159       -3.2137363352  W2        737             0.0000000000
      2210       737  TIP3      H1             -1.1118905720      -50.0985924159       -2.3819863352  W2        737             0.0000000000
      2211       737  TIP3      H2             -1.9367405720      -50.2930524159       -3.6364563352  W2        737             0.0000000000
      2212       738  TIP3      OH2             5.6817394280      -50.1635624159       -1.0007663352  W2        738             0.0000000000
      2213       738  TIP3      H1              5.3858194280      -50.3292624159       -1.8958563352  W2        738             0.0000000000
      2214       738  TIP3      H2              6.6132594280      -50.3835324159       -1.0113763352  W2        738             0.0000000000
      2215       739  TIP3      OH2            10.3020194280      -44.7903624159       -3.1109663352  W2        739             0.0000000000
      2216       739  TIP3      H1              9.4014494280      -44.6071024159       -3.3785763352  W2        739             0.0000000000
      2217       739  TIP3      H2             10.3361294280      -44.5314324159       -2.1900863352  W2        739             0.0000000000
      2218       740  TIP3      OH2            16.0333494280      -52.5455724159      -14.7437063352  W2        740             0.0000000000
      2219       740  TIP3      H1             15.4789794280      -52.9417724159      -15.4159563352  W2        740             0.0000000000
      2220       740  TIP3      H2             16.1337094280      -51.6350524159      -15.0213763352  W2        740             0.0000000000
      2221       741  TIP3      OH2            15.9965494280      -46.7454024159       -1.9065563352  W2        741             0.0000000000
      2222       741  TIP3      H1             15.1453994280      -46.5070224159       -2.2739163352  W2        741             0.0000000000
      2223       741  TIP3      H2             16.5868894280      -46.7620824159       -2.6598463352  W2        741             0.0000000000
      2224       742  TIP3      OH2            14.3285194280      -43.7595324159      -14.2784963352  W2        742             0.0000000000
      2225       742  TIP3      H1             13.9556294280      -44.5851524159      -13.9694363352  W2        742             0.0000000000
      2226       742  TIP3      H2             14.6058694280      -43.9425924159      -15.1761563352  W2        742             0.0000000000
      2227       743  TIP3      OH2            11.4889094280      -48.9515824159       -7.2573063352  W2        743             0.0000000000
      2228       743  TIP3      H1             10.5605994280      -49.1833924159       -7.2843763352  W2        743             0.0000000000
      2229       743  TIP3      H2             11.9400194280      -49.7286024159       -7.5874263352  W2        743             0.0000000000
      2230       744  TIP3      OH2             4.0322194280      -44.6234224159      -11.1244363352  W2        744             0.0000000000
      2231       744  TIP3      H1              4.5594394280      -43.8499824159      -11.3245563352  W2        744             0.0000000000
      2232       744  TIP3      H2              3.1520694280      -44.3985024159      -11.4260363352  W2        744             0.0000000000
      2233       745  TIP3      OH2            -0.2130105720      -49.7610124159      -16.5371963352  W2        745             0.0000000000
      2234       745  TIP3      H1              0.4029794280      -49.1342924159      -16.1577163352  W2        745             0.0000000000
      2235       745  TIP3      H2             -1.0747505720      -49.4450324159      -16.2655463352  W2        745             0.0000000000
      2236       746  TIP3      OH2             5.4594494280      -46.9604324159      -11.5480063352  W2        746             0.0000000000
      2237       746  TIP3      H1              5.2184494280      -46.0349924159      -11.5064763352  W2        746             0.0000000000
      2238       746  TIP3      H2              4.7188094280      -47.4193024159      -11.1516163352  W2        746             0.0000000000
      2239       747  TIP3      OH2             5.9741094280      -42.8110724159       -5.2328963352  W2        747             0.0000000000
      2240       747  TIP3      H1              6.3365794280      -41.9565124159       -5.4664563352  W2        747             0.0000000000
      2241       747  TIP3      H2              6.5056294280      -43.1029124159       -4.4922663352  W2        747             0.0000000000
      2242       748  TIP3      OH2             4.1425294280      -41.9386724159      -12.0027863352  W2        748             0.0000000000
      2243       748  TIP3      H1              3.1925794280      -41.8329324159      -11.9514563352  W2        748             0.0000000000
      2244       748  TIP3      H2              4.4943394280      -41.1179324159      -11.6580363352  W2        748             0.0000000000
      2245       749  TIP3      OH2             9.5181894280      -46.7120024159       -5.5323363352  W2        749             0.0000000000
      2246       749  TIP3      H1              9.0923194280      -46.9398324159       -4.7059363352  W2        749             0.0000000000
      2247       749  TIP3      H2             10.0987694280      -47.4508224159       -5.7148063352  W2        749             0.0000000000
      2248       750  TIP3      OH2            11.7210794280      -45.7829524159      -16.4584363352  W2        750             0.0000000000
      2249       750  TIP3      H1             12.0743894280      -46.1629724159      -15.6540863352  W2        750             0.0000000000
      2250       750  TIP3      H2             10.7724294280      -45.8764724159      -16.3715063352  W2        750             0.0000000000
      2251       751  TIP3      OH2            12.1766094280      -42.1600524159       -3.0628563352  W2        751             0.0000000000
      2252       751  TIP3      H1             11.5749294280      -42.7157624159       -3.5582263352  W2        751             0.0000000000
      2253       751  TIP3      H2             12.4579794280      -41.4930724159       -3.6891163352  W2        751             0.0000000000
      2254       752  TIP3      OH2            16.2245194280      -41.3037024159      -16.2574163352  W2        752             0.0000000000
      2255       752  TIP3      H1             16.9683094280      -40.7176524159      -16.3972563352  W2        752             0.0000000000
      2256       752  TIP3      H2             15.5303294280      -40.7351224159      -15.9241763352  W2        752             0.0000000000
      2257       753  TIP3      OH2             0.2991994280      -54.9272824159       -3.6555963352  W2        753             0.0000000000
      2258       753  TIP3      H1             -0.5935705720      -54.5887424159       -3.7231963352  W2        753             0.0000000000
      2259       753  TIP3      H2              0.2004794280      -55.7826724159       -3.2375163352  W2        753             0.0000000000
      2260       754  TIP3      OH2            12.5870094280      -47.1107524159      -14.2316463352  W2        754             0.0000000000
      2261       754  TIP3      H1             12.3097694280      -47.8388224159      -13.6755363352  W2        754             0.0000000000
      2262       754  TIP3      H2             13.5143094280      -46.9915524159      -14.0263863352  W2        754             0.0000000000
      2263       755  TIP3      OH2            -0.0496005720      -43.1228424159       -5.2206563352  W2        755             0.0000000000
      2264       755  TIP3      H1              0.1674294280      -44.0546024159       -5.2516863352  W2        755             0.0000000000
      2265       755  TIP3      H2              0.1967494280      -42.8483424159       -4.3373763352  W2        755             0.0000000000
      2266       756  TIP3      OH2             5.8118594280      -44.6713424159      -18.0114363352  W2        756             0.0000000000
      2267       756  TIP3      H1              6.0508394280      -45.4195324159      -18.5585463352  W2        756             0.0000000000
      2268       756  TIP3      H2              5.5429894280      -45.0591724159      -17.1786563352  W2        756             0.0000000000
      2269       757  TIP3      OH2             4.7489194280      -45.1009624159      -15.5551763352  W2        757             0.0000000000
      2270       757  TIP3      H1              4.8957194280      -45.6209824159      -14.7650863352  W2        757             0.0000000000
      2271       757  TIP3      H2              4.7460894280      -44.1942024159      -15.2485863352  W2        757             0.0000000000
      2272       758  TIP3      OH2             1.2020294280      -47.8486324159      -15.0446363352  W2        758             0.0000000000
      2273       758  TIP3      H1              0.5159594280      -47.4963824159      -14.4776663352  W2        758             0.0000000000
      2274       758  TIP3      H2              1.7248194280      -47.0856724159      -15.2912063352  W2        758             0.0000000000
      2275       759  TIP3      OH2             9.0335394280      -55.1862524159       -4.7657363352  W2        759             0.0000000000
      2276       759  TIP3      H1              9.7323294280      -55.1123824159       -4.1157663352  W2        759             0.0000000000
      2277       759  TIP3      H2              8.6526794280      -56.0507524159       -4.6114463352  W2        759             0.0000000000
      2278       760  TIP3      OH2             9.8180294280      -55.5340824159      -13.6685063352  W2        760             0.0000000000
      2279       760  TIP3      H1             10.0378594280      -55.0625424159      -14.4719663352  W2        760             0.0000000000
      2280       760  TIP3      H2             10.3764294280      -55.1398224159      -12.9984463352  W2        760             0.0000000000
      2281       761  TIP3      OH2             7.4866394280      -43.4036024159      -14.8057563352  W2        761             0.0000000000
      2282       761  TIP3      H1              6.6702494280      -42.9066324159      -14.7533263352  W2        761             0.0000000000
      2283       761  TIP3      H2              8.0162694280      -42.9282524159      -15.4458763352  W2        761             0.0000000000
      2284       762  TIP3      OH2             7.0180194280      -53.8062024159      -12.8336663352  W2        762             0.0000000000
      2285       762  TIP3      H1              7.8302794280      -53.3018824159      -12.7874963352  W2        762             0.0000000000
      2286       762  TIP3      H2              6.7733194280      -53.9512324159      -11.9197063352  W2        762             0.0000000000
      2287       763  TIP3      OH2             7.5536594280      -52.8199324159       -3.6490063352  W2        763             0.0000000000
      2288       763  TIP3      H1              7.6726894280      -52.2463924159       -2.8919663352  W2        763             0.0000000000
      2289       763  TIP3      H2              8.2091194280      -53.5079924159       -3.5342263352  W2        763             0.0000000000
      2290       764  TIP3      OH2             7.9016894280      -56.7249024159      -11.8955563352  W2        764             0.0000000000
      2291       764  TIP3      H1              7.5550394280      -56.1078424159      -11.2511263352  W2        764             0.0000000000
      2292       764  TIP3      H2              8.5603794280      -56.2243324159      -12.3770063352  W2        764             0.0000000000
      2293       765  TIP3      OH2             4.8249494280      -42.3598824159      -14.8240663352  W2        765             0.0000000000
      2294       765  TIP3      H1              4.9858194280      -41.5601324159      -15.3248063352  W2        765             0.0000000000
      2295       765  TIP3      H2              4.6277294280      -42.0532824159      -13.9390063352  W2        765             0.0000000000
      2296       766  TIP3      OH2             3.5593894280      -55.6619624159      -15.2083063352  W2        766             0.0000000000
      2297       766  TIP3      H1              3.4758694280      -54.7736524159      -14.8616663352  W2        766             0.0000000000
      2298       766  TIP3      H2              4.4494194280      -55.9272924159      -14.9766263352  W2        766             0.0000000000
      2299       767  TIP3      OH2            13.7582394280      -54.9129024159       -2.8140363352  W2        767             0.0000000000
      2300       767  TIP3      H1             12.8418194280      -54.6507324159       -2.9016663352  W2        767             0.0000000000
      2301       767  TIP3      H2             14.0937394280      -54.9160024159       -3.7105063352  W2        767             0.0000000000
      2302       768  TIP3      OH2            12.3603394280      -51.1628024159       -8.7183063352  W2        768             0.0000000000
      2303       768  TIP3      H1             11.5627794280      -51.5777824159       -9.0468063352  W2        768             0.0000000000
      2304       768  TIP3      H2             12.8054494280      -51.8534324159       -8.2272563352  W2        768             0.0000000000
      2305       769  TIP3      OH2             1.8179194280      -45.2347424159      -16.1478563352  W2        769             0.0000000000
      2306       769  TIP3      H1              2.4100694280      -44.5352624159      -15.8716163352  W2        769             0.0000000000
      2307       769  TIP3      H2              2.2772194280      -45.6677924159      -16.8673963352  W2        769             0.0000000000
      2308       770  TIP3      OH2             0.1338394280      -52.5704424159      -17.0319163352  W2        770             0.0000000000
      2309       770  TIP3      H1              0.0890994280      -51.6311324159      -16.8532163352  W2        770             0.0000000000
      2310       770  TIP3      H2             -0.7538405720      -52.8059524159      -17.3017063352  W2        770             0.0000000000
      2311       771  TIP3      OH2            13.4467994280      -41.9065524159       -7.0959563352  W2        771             0.0000000000
      2312       771  TIP3      H1             13.2912294280      -41.2281124159       -7.7530263352  W2        771             0.0000000000
      2313       771  TIP3      H2             14.3794394280      -41.8346224159       -6.8928963352  W2        771             0.0000000000
      2314       772  TIP3      OH2             0.9420394280      -57.7887824159       -8.3588163352  W2        772             0.0000000000
      2315       772  TIP3      H1              0.7130194280      -57.7295324159       -9.2863163352  W2        772             0.0000000000
      2316       772  TIP3      H2              0.4993794280      -58.5802324159       -8.0524063352  W2        772             0.0000000000
      2317       773  TIP3      OH2            -0.1276305720      -43.8480724159      -12.1982363352  W2        773             0.0000000000
      2318       773  TIP3      H1             -0.9597705720      -43.3758024159      -12.1710963352  W2        773             0.0000000000
      2319       773  TIP3      H2              0.4181994280      -43.3383124159      -12.7969263352  W2        773             0.0000000000
      2320       774  TIP3      OH2            -0.8392605720      -41.2357024159       -0.8684363352  W2        774             0.0000000000
      2321       774  TIP3      H1             -0.2990405720      -41.4523024159       -0.1085163352  W2        774             0.0000000000
      2322       774  TIP3      H2             -1.3204605720      -42.0411024159       -1.0581863352  W2        774             0.0000000000
      2323       775  TIP3      OH2             3.7580794280      -42.3162624159        0.7519836648  W2        775             0.0000000000
      2324       775  TIP3      H1              4.5257994280      -42.7751824159        1.0929036648  W2        775             0.0000000000
      2325       775  TIP3      H2              3.7366994280      -42.5422824159       -0.1778963352  W2        775             0.0000000000
      2326       776  TIP3      OH2             7.8500394280      -42.8082024159      -17.8728363352  W2        776             0.0000000000
      2327       776  TIP3      H1              7.2061394280      -43.4393424159      -17.5514663352  W2        776             0.0000000000
      2328       776  TIP3      H2              8.6118694280      -43.3394024159      -18.1044863352  W2        776             0.0000000000
      2329       777  TIP3      OH2            10.3349494280      -43.9361524159       -0.5188663352  W2        777             0.0000000000
      2330       777  TIP3      H1              9.9838994280      -44.7928524159       -0.2758263352  W2        777             0.0000000000
      2331       777  TIP3      H2             11.0612694280      -43.7934824159        0.0880336648  W2        777             0.0000000000
      2332       778  TIP3      OH2            12.4543294280      -42.9912124159      -17.6390363352  W2        778             0.0000000000
      2333       778  TIP3      H1             12.7373694280      -43.7856924159      -17.1863463352  W2        778             0.0000000000
      2334       778  TIP3      H2             13.1941194280      -42.7581124159      -18.1999263352  W2        778             0.0000000000
      2335       779  TIP3      OH2            -0.9323105720      -47.4252924159        0.0859936648  W2        779             0.0000000000
      2336       779  TIP3      H1             -0.7882605720      -48.3272224159       -0.2003363352  W2        779             0.0000000000
      2337       779  TIP3      H2             -1.7045705720      -47.1390824159       -0.4017763352  W2        779             0.0000000000
      2338       780  TIP3      OH2             3.4090594280      -47.0817224159      -17.7815463352  W2        780             0.0000000000
      2339       780  TIP3      H1              3.4734694280      -47.8757624159      -17.2509063352  W2        780             0.0000000000
      2340       780  TIP3      H2              4.0619794280      -47.2004424159      -18.4713463352  W2        780             0.0000000000
      2341       781  TIP3      OH2             5.7232994280      -47.4554824159       -0.4813663352  W2        781             0.0000000000
      2342       781  TIP3      H1              5.3946794280      -47.1846724159       -1.3386263352  W2        781             0.0000000000
      2343       781  TIP3      H2              5.8751194280      -48.3965024159       -0.5688663352  W2        781             0.0000000000
      2344       782  TIP3      OH2             8.7613994280      -46.0345524159      -18.0457463352  W2        782             0.0000000000
      2345       782  TIP3      H1              8.4928094280      -45.8543424159      -17.1448563352  W2        782             0.0000000000
      2346       782  TIP3      H2              8.5549594280      -46.9599324159      -18.1771663352  W2        782             0.0000000000
      2347       783  TIP3      OH2            11.4578194280      -47.5397524159       -3.0981363352  W2        783             0.0000000000
      2348       783  TIP3      H1             12.2032994280      -46.9513824159       -3.2177363352  W2        783             0.0000000000
      2349       783  TIP3      H2             10.7004994280      -46.9577824159       -3.0348263352  W2        783             0.0000000000
      2350       784  TIP3      OH2            -0.0996605720      -50.2249624159       -0.4940763352  W2        784             0.0000000000
      2351       784  TIP3      H1              0.3084594280      -51.0823024159       -0.6150163352  W2        784             0.0000000000
      2352       784  TIP3      H2             -0.3599005720      -50.2108324159        0.4269536648  W2        784             0.0000000000
      2353       785  TIP3      OH2             4.5584394280      -49.1091024159      -15.4757463352  W2        785             0.0000000000
      2354       785  TIP3      H1              4.0986394280      -49.5932724159      -14.7898963352  W2        785             0.0000000000
      2355       785  TIP3      H2              4.8133094280      -49.7775624159      -16.1116963352  W2        785             0.0000000000
      2356       786  TIP3      OH2             3.8473694280      -51.2163924159       -3.1197863352  W2        786             0.0000000000
      2357       786  TIP3      H1              3.2289794280      -50.5417324159       -2.8393163352  W2        786             0.0000000000
      2358       786  TIP3      H2              4.1914894280      -50.8950024159       -3.9531663352  W2        786             0.0000000000
      2359       787  TIP3      OH2             5.6294794280      -50.8659224159      -17.2134263352  W2        787             0.0000000000
      2360       787  TIP3      H1              5.4489794280      -51.0208024159      -18.1405963352  W2        787             0.0000000000
      2361       787  TIP3      H2              6.5795294280      -50.7580524159      -17.1686363352  W2        787             0.0000000000
      2362       788  TIP3      OH2             8.8671894280      -48.7448624159        0.1576936648  W2        788             0.0000000000
      2363       788  TIP3      H1              9.8203094280      -48.6609524159        0.1302936648  W2        788             0.0000000000
      2364       788  TIP3      H2              8.7066494280      -49.4566824159        0.7771836648  W2        788             0.0000000000
      2365       789  TIP3      OH2            15.0193094280      -48.5115024159      -17.7676163352  W2        789             0.0000000000
      2366       789  TIP3      H1             14.7457894280      -48.9359524159      -18.5807863352  W2        789             0.0000000000
      2367       789  TIP3      H2             15.0587194280      -47.5800524159      -17.9845763352  W2        789             0.0000000000
      2368       790  TIP3      OH2             4.1867394280      -53.8613124159       -2.0374763352  W2        790             0.0000000000
      2369       790  TIP3      H1              4.3368294280      -54.5901824159       -2.6395063352  W2        790             0.0000000000
      2370       790  TIP3      H2              4.1889794280      -53.0841424159       -2.5962563352  W2        790             0.0000000000
      2371       791  TIP3      OH2             4.5993094280      -55.4917324159       -4.5447363352  W2        791             0.0000000000
      2372       791  TIP3      H1              5.1350594280      -55.0400624159       -5.1968063352  W2        791             0.0000000000
      2373       791  TIP3      H2              3.7472694280      -55.5997524159       -4.9673263352  W2        791             0.0000000000
      2374       792  TIP3      OH2             6.1811494280      -50.0521124159       -4.3052163352  W2        792             0.0000000000
      2375       792  TIP3      H1              6.9316294280      -50.2083624159       -4.8784363352  W2        792             0.0000000000
      2376       792  TIP3      H2              5.8419794280      -49.2004524159       -4.5806663352  W2        792             0.0000000000
      2377       793  TIP3      OH2            10.5967694280      -52.2369324159        0.7233136648  W2        793             0.0000000000
      2378       793  TIP3      H1             10.7888994280      -53.1679924159        0.6117636648  W2        793             0.0000000000
      2379       793  TIP3      H2             11.4543994280      -51.8119824159        0.7128536648  W2        793             0.0000000000
      2380       794  TIP3      OH2            11.9134894280      -49.4484124159       -1.1994163352  W2        794             0.0000000000
      2381       794  TIP3      H1             11.6319894280      -48.7389524159       -1.7770363352  W2        794             0.0000000000
      2382       794  TIP3      H2             12.8559194280      -49.5211124159       -1.3502963352  W2        794             0.0000000000
      2383       795  TIP3      OH2             2.6653694280      -52.6629624159       -0.1259163352  W2        795             0.0000000000
      2384       795  TIP3      H1              1.8982694280      -53.1954824159       -0.3361563352  W2        795             0.0000000000
      2385       795  TIP3      H2              3.3442694280      -52.9729224159       -0.7252863352  W2        795             0.0000000000
      2386       796  TIP3      OH2             5.4048594280      -58.0351624159       -4.1133763352  W2        796             0.0000000000
      2387       796  TIP3      H1              5.3068194280      -57.0888424159       -4.2187563352  W2        796             0.0000000000
      2388       796  TIP3      H2              4.6624794280      -58.4077824159       -4.5890263352  W2        796             0.0000000000
      2389       797  TIP3      OH2             6.6689094280      -53.7136224159       -0.5495363352  W2        797             0.0000000000
      2390       797  TIP3      H1              6.4334494280      -53.9329524159        0.3519536648  W2        797             0.0000000000
      2391       797  TIP3      H2              5.8855994280      -53.9205024159       -1.0592863352  W2        797             0.0000000000
      2392       798  TIP3      OH2             9.3845694280      -54.5862724159       -1.4741863352  W2        798             0.0000000000
      2393       798  TIP3      H1              8.4371094280      -54.5543024159       -1.3418563352  W2        798             0.0000000000
      2394       798  TIP3      H2              9.6972394280      -55.2115624159       -0.8203663352  W2        798             0.0000000000
      2395       799  TIP3      OH2            11.0187194280      -55.9521624159        0.5310036648  W2        799             0.0000000000
      2396       799  TIP3      H1             10.9218994280      -56.9044324159        0.5251936648  W2        799             0.0000000000
      2397       799  TIP3      H2             10.6970294280      -55.6834824159        1.3915536648  W2        799             0.0000000000
      2398       800  TIP3      OH2             0.8456494280      -54.7425824159       -0.4214463352  W2        800             0.0000000000
      2399       800  TIP3      H1              1.0573894280      -55.4489724159       -1.0316963352  W2        800             0.0000000000
      2400       800  TIP3      H2              0.7343994280      -55.1799824159        0.4226736648  W2        800             0.0000000000
      2401       801  TIP3      OH2             5.6266694280      -58.7414224159       -1.4420963352  W2        801             0.0000000000
      2402       801  TIP3      H1              6.3385094280      -59.3812024159       -1.4561863352  W2        801             0.0000000000
      2403       801  TIP3      H2              5.5257094280      -58.4745924159       -2.3557863352  W2        801             0.0000000000
      2404       802  TIP3      OH2             5.9804194280      -57.0585824159        0.6115336648  W2        802             0.0000000000
      2405       802  TIP3      H1              5.8486394280      -57.5342024159       -0.2086163352  W2        802             0.0000000000
      2406       802  TIP3      H2              5.3811594280      -56.3142224159        0.5562436648  W2        802             0.0000000000
      2407       803  TIP3      OH2             5.5266494280      -40.1755524159      -16.2120663352  W2        803             0.0000000000
      2408       803  TIP3      H1              6.4597194280      -40.0176824159      -16.0682263352  W2        803             0.0000000000
      2409       803  TIP3      H2              5.2625294280      -39.5002524159      -16.8369163352  W2        803             0.0000000000
      2410       804  TIP3      OH2            -0.9048605720      -45.5391724159      -16.7292563352  W2        804             0.0000000000
      2411       804  TIP3      H1              0.0090594280      -45.4602824159      -16.4558663352  W2        804             0.0000000000
      2412       804  TIP3      H2             -0.8975505720      -46.2262124159      -17.3956963352  W2        804             0.0000000000
      2413       805  TIP3      OH2            -2.2558005720      -40.1463224159      -11.6518663352  W2        805             0.0000000000
      2414       805  TIP3      H1             -2.9030905720      -40.6081524159      -12.1847463352  W2        805             0.0000000000
      2415       805  TIP3      H2             -1.9013405720      -40.8179924159      -11.0692463352  W2        805             0.0000000000
      2416       806  TIP3      OH2            -1.3858805720      -42.0656224159       -9.8472463352  W2        806             0.0000000000
      2417       806  TIP3      H1             -1.7202005720      -42.9458924159       -9.6752263352  W2        806             0.0000000000
      2418       806  TIP3      H2             -1.1636405720      -41.7201224159       -8.9826863352  W2        806             0.0000000000
      2419       807  TIP3      OH2            16.1625994280      -41.2559824159       -6.8667663352  W2        807             0.0000000000
      2420       807  TIP3      H1             16.1412694280      -41.0711424159       -5.9278263352  W2        807             0.0000000000
      2421       807  TIP3      H2             16.8532194280      -40.6875824159       -7.2076263352  W2        807             0.0000000000
      2422       808  TIP3      OH2            15.7258894280      -41.6888724159       -3.9448563352  W2        808             0.0000000000
      2423       808  TIP3      H1             15.2387594280      -42.4244624159       -4.3161163352  W2        808             0.0000000000
      2424       808  TIP3      H2             16.2751594280      -42.0824824159       -3.2669163352  W2        808             0.0000000000
      2425       809  TIP3      OH2            14.1766194280      -45.8990624159        0.6931736648  W2        809             0.0000000000
      2426       809  TIP3      H1             13.3107294280      -46.0040924159        1.0874036648  W2        809             0.0000000000
      2427       809  TIP3      H2             14.5532094280      -45.1407324159        1.1396436648  W2        809             0.0000000000
      2428       810  TIP3      OH2            15.4775894280      -47.6426924159      -13.7925763352  W2        810             0.0000000000
      2429       810  TIP3      H1             16.3277294280      -47.2216024159      -13.6654163352  W2        810             0.0000000000
      2430       810  TIP3      H2             15.4830994280      -48.3826824159      -13.1854363352  W2        810             0.0000000000
      2431       811  TIP3      OH2            15.8721494280      -49.5889524159      -11.9690063352  W2        811             0.0000000000
      2432       811  TIP3      H1             15.1456094280      -50.0686924159      -11.5712463352  W2        811             0.0000000000
      2433       811  TIP3      H2             16.4534794280      -49.3834824159      -11.2368463352  W2        811             0.0000000000
      2434       812  TIP3      OH2            15.6312694280      -46.8042024159       -7.0212463352  W2        812             0.0000000000
      2435       812  TIP3      H1             16.4646894280      -47.1822024159       -7.3018863352  W2        812             0.0000000000
      2436       812  TIP3      H2             15.7432994280      -45.8610824159       -7.1403363352  W2        812             0.0000000000
      2437       813  TIP3      OH2            14.1174994280      -43.9264524159       -4.7144063352  W2        813             0.0000000000
      2438       813  TIP3      H1             13.4700294280      -43.6013024159       -4.0888863352  W2        813             0.0000000000
      2439       813  TIP3      H2             13.5998994280      -44.3666824159       -5.3885763352  W2        813             0.0000000000
      2440       814  TIP3      OH2            16.1404594280      -49.6881024159      -15.5778763352  W2        814             0.0000000000
      2441       814  TIP3      H1             15.6185694280      -49.3316924159      -16.2967863352  W2        814             0.0000000000
      2442       814  TIP3      H2             16.1073794280      -49.0133224159      -14.8997863352  W2        814             0.0000000000
      2443       815  TIP3      OH2            14.4893594280      -52.4485424159      -17.0271663352  W2        815             0.0000000000
      2444       815  TIP3      H1             14.5857994280      -51.7818424159      -17.7071963352  W2        815             0.0000000000
      2445       815  TIP3      H2             14.3493194280      -53.2639124159      -17.5086163352  W2        815             0.0000000000
      2446       816  TIP3      OH2            13.6588294280      -51.0683024159      -11.4061363352  W2        816             0.0000000000
      2447       816  TIP3      H1             13.5087094280      -52.0134424159      -11.4263563352  W2        816             0.0000000000
      2448       816  TIP3      H2             13.3052794280      -50.7871624159      -10.5622263352  W2        816             0.0000000000
      2449       817  TIP3      OH2            -1.3059305720      -48.9900824159       -7.3957563352  W2        817             0.0000000000
      2450       817  TIP3      H1             -1.1216405720      -49.0719124159       -8.3314663352  W2        817             0.0000000000
      2451       817  TIP3      H2             -0.4566405720      -49.1143824159       -6.9721163352  W2        817             0.0000000000
      2452       818  TIP3      OH2            14.5151194280      -49.0979724159       -1.7673063352  W2        818             0.0000000000
      2453       818  TIP3      H1             15.0978494280      -49.8327424159       -1.5755863352  W2        818             0.0000000000
      2454       818  TIP3      H2             15.0790494280      -48.3259424159       -1.7207263352  W2        818             0.0000000000
      2455       819  TIP3      OH2            16.0118294280      -51.1953924159       -1.0827663352  W2        819             0.0000000000
      2456       819  TIP3      H1             15.1484994280      -51.5741824159       -1.2482963352  W2        819             0.0000000000
      2457       819  TIP3      H2             16.6161994280      -51.9339124159       -1.1571863352  W2        819             0.0000000000
      2458       820  TIP3      OH2            13.7367394280      -55.0405624159      -17.9096163352  W2        820             0.0000000000
      2459       820  TIP3      H1             14.3473194280      -55.4118824159      -17.2727963352  W2        820             0.0000000000
      2460       820  TIP3      H2             12.8998894280      -55.4618724159      -17.7136163352  W2        820             0.0000000000
      2461       821  TIP3      OH2            13.3693094280      -53.4857224159      -12.9436263352  W2        821             0.0000000000
      2462       821  TIP3      H1             13.6490194280      -54.3926824159      -12.8194563352  W2        821             0.0000000000
      2463       821  TIP3      H2             14.1284794280      -53.0515724159      -13.3327063352  W2        821             0.0000000000
      2464       822  TIP3      OH2            13.9811394280      -52.9039824159       -7.5077363352  W2        822             0.0000000000
      2465       822  TIP3      H1             14.9139394280      -52.6919924159       -7.5421363352  W2        822             0.0000000000
      2466       822  TIP3      H2             13.7458894280      -52.8027724159       -6.5854363352  W2        822             0.0000000000
      2467       823  TIP3      OH2            14.0103294280      -52.1674524159       -4.7317963352  W2        823             0.0000000000
      2468       823  TIP3      H1             13.1674594280      -51.8994124159       -4.3658163352  W2        823             0.0000000000
      2469       823  TIP3      H2             14.4527594280      -51.3452624159       -4.9426863352  W2        823             0.0000000000
      2470       824  TIP3      OH2            -1.7084505720      -53.7195824159       -1.2548763352  W2        824             0.0000000000
      2471       824  TIP3      H1             -0.7889605720      -53.8417524159       -1.0185663352  W2        824             0.0000000000
      2472       824  TIP3      H2             -2.1580005720      -54.4696124159       -0.8655263352  W2        824             0.0000000000
      2473       825  TIP3      OH2            16.2934894280      -58.1874324159        0.6217036648  W2        825             0.0000000000
      2474       825  TIP3      H1             16.6431894280      -58.8410824159        0.0161736648  W2        825             0.0000000000
      2475       825  TIP3      H2             16.4404394280      -57.3500224159        0.1819636648  W2        825             0.0000000000
      2476       826  TIP3      OH2            13.9827894280      -56.2227924159      -12.8954263352  W2        826             0.0000000000
      2477       826  TIP3      H1             14.1652894280      -56.6716424159      -12.0699263352  W2        826             0.0000000000
      2478       826  TIP3      H2             13.3830794280      -56.8073524159      -13.3589663352  W2        826             0.0000000000
      2479       827  TIP3      OH2            -0.4872005720      -55.4074224159       -8.3635863352  W2        827             0.0000000000
      2480       827  TIP3      H1             -0.0420405720      -56.1991724159       -8.0616163352  W2        827             0.0000000000
      2481       827  TIP3      H2             -0.0209005720      -54.6909024159       -7.9330263352  W2        827             0.0000000000
      2482       828  TIP3      OH2            -2.1831705720      -52.4081224159       -7.2945663352  W2        828             0.0000000000
      2483       828  TIP3      H1             -1.6911905720      -52.6290724159       -8.0853663352  W2        828             0.0000000000
      2484       828  TIP3      H2             -1.8210805720      -51.5677824159       -7.0136163352  W2        828             0.0000000000
      2485       829  TIP3      OH2            15.8132094280      -56.0779724159       -1.0291663352  W2        829             0.0000000000
      2486       829  TIP3      H1             14.8957794280      -55.8072624159       -1.0648163352  W2        829             0.0000000000
      2487       829  TIP3      H2             15.9361494280      -56.6131324159       -1.8131963352  W2        829             0.0000000000
      2488       830  TIP3      OH2            15.8494094280      -56.1549824159      -16.3673963352  W2        830             0.0000000000
      2489       830  TIP3      H1             16.2616694280      -56.8764124159      -16.8425963352  W2        830             0.0000000000
      2490       830  TIP3      H2             16.5310594280      -55.4855224159      -16.3089663352  W2        830             0.0000000000
      2491       831  TIP3      OH2            -1.8695205720      -56.1502124159      -13.2403263352  W2        831             0.0000000000
      2492       831  TIP3      H1             -2.7946805720      -55.9415524159      -13.3697763352  W2        831             0.0000000000
      2493       831  TIP3      H2             -1.4155305720      -55.6661324159      -13.9300963352  W2        831             0.0000000000
      2494       832  TIP3      OH2            12.9011994280      -41.1660424159      -11.2945863352  W2        832             0.0000000000
      2495       832  TIP3      H1             13.5534894280      -41.5138324159      -11.9026763352  W2        832             0.0000000000
      2496       832  TIP3      H2             13.4115794280      -40.6777224159      -10.6486163352  W2        832             0.0000000000
      2497       833  TIP3      OH2            -1.9059805720      -57.4123124159       -4.8960763352  W2        833             0.0000000000
      2498       833  TIP3      H1             -2.5709305720      -57.6582824159       -4.2529863352  W2        833             0.0000000000
      2499       833  TIP3      H2             -2.3488505720      -56.7902724159       -5.4732763352  W2        833             0.0000000000
      2500       834  TIP3      OH2             0.2859494280      -44.2369024159       -0.7514963352  W2        834             0.0000000000
      2501       834  TIP3      H1             -0.5348005720      -44.0622524159       -1.2120263352  W2        834             0.0000000000
      2502       834  TIP3      H2              0.0337294280      -44.3104324159        0.1689436648  W2        834             0.0000000000
      2503       835  TIP3      OH2             3.2402394280      -43.2627824159       -4.4930963352  W2        835             0.0000000000
      2504       835  TIP3      H1              2.8153494280      -42.4529324159       -4.7756363352  W2        835             0.0000000000
      2505       835  TIP3      H2              4.1445194280      -43.1773724159       -4.7951163352  W2        835             0.0000000000
      2506       836  TIP3      OH2             7.5513794280      -41.8637824159       -1.5337263352  W2        836             0.0000000000
      2507       836  TIP3      H1              7.7361294280      -42.1971724159       -0.6556963352  W2        836             0.0000000000
      2508       836  TIP3      H2              8.3978294280      -41.5539224159       -1.8558063352  W2        836             0.0000000000
      2509       837  TIP3      OH2             9.8964194280      -40.5778924159       -2.2895863352  W2        837             0.0000000000
      2510       837  TIP3      H1             10.5733094280      -41.2106624159       -2.5296663352  W2        837             0.0000000000
      2511       837  TIP3      H2             10.2182994280      -40.1768424159       -1.4822563352  W2        837             0.0000000000
      2512       838  TIP3      OH2            14.8137994280      -57.9883424159       -3.2100863352  W2        838             0.0000000000
      2513       838  TIP3      H1             14.0011494280      -57.6633124159       -3.5976163352  W2        838             0.0000000000
      2514       838  TIP3      H2             15.0466494280      -58.7484924159       -3.7431763352  W2        838             0.0000000000
      2515       839  TIP3      OH2             0.6419094280      -40.0063924159       -4.4455663352  W2        839             0.0000000000
      2516       839  TIP3      H1             -0.0784505720      -39.5662924159       -4.8967963352  W2        839             0.0000000000
      2517       839  TIP3      H2              0.2763094280      -40.2569224159       -3.5971663352  W2        839             0.0000000000
      2518       840  TIP3      OH2             3.1091694280      -40.4060024159       -5.4158463352  W2        840             0.0000000000
      2519       840  TIP3      H1              2.2443894280      -40.3341524159       -5.0118363352  W2        840             0.0000000000
      2520       840  TIP3      H2              3.0540694280      -39.8592724159       -6.1995963352  W2        840             0.0000000000
      2521       841  TIP3      OH2             7.8197294280      -40.5181124159       -6.2402463352  W2        841             0.0000000000
      2522       841  TIP3      H1              7.3631294280      -39.9891424159       -6.8944063352  W2        841             0.0000000000
      2523       841  TIP3      H2              7.9825294280      -39.9149724159       -5.5150163352  W2        841             0.0000000000
      2524       842  TIP3      OH2            10.1473594280      -41.6401524159       -5.2952163352  W2        842             0.0000000000
      2525       842  TIP3      H1              9.2427294280      -41.4751324159       -5.5610063352  W2        842             0.0000000000
      2526       842  TIP3      H2             10.5762194280      -40.7869324159       -5.3608763352  W2        842             0.0000000000
      2527       843  TIP3      OH2            12.7515494280      -40.0702424159       -5.0004363352  W2        843             0.0000000000
      2528       843  TIP3      H1             12.5697494280      -39.1543524159       -5.2109463352  W2        843             0.0000000000
      2529       843  TIP3      H2             12.9283294280      -40.4805324159       -5.8469763352  W2        843             0.0000000000
      2530       844  TIP3      OH2             0.0567194280      -41.3831424159       -7.5353863352  W2        844             0.0000000000
      2531       844  TIP3      H1              0.0383194280      -41.8086324159       -6.6781563352  W2        844             0.0000000000
      2532       844  TIP3      H2              0.8615094280      -41.7016424159       -7.9441663352  W2        844             0.0000000000
      2533       845  TIP3      OH2             2.1980294280      -42.6732724159       -8.8803963352  W2        845             0.0000000000
      2534       845  TIP3      H1              1.9790994280      -43.5895324159       -8.7107963352  W2        845             0.0000000000
      2535       845  TIP3      H2              3.0222494280      -42.5332324159       -8.4142563352  W2        845             0.0000000000
      2536       846  TIP3      OH2             4.7352794280      -42.2033424159       -8.0315963352  W2        846             0.0000000000
      2537       846  TIP3      H1              4.9478494280      -43.0914424159       -8.3185063352  W2        846             0.0000000000
      2538       846  TIP3      H2              4.7997894280      -42.2375724159       -7.0771963352  W2        846             0.0000000000
      2539       847  TIP3      OH2             8.2436494280      -56.5392824159       -8.8872663352  W2        847             0.0000000000
      2540       847  TIP3      H1              7.5693294280      -57.1687224159       -8.6316863352  W2        847             0.0000000000
      2541       847  TIP3      H2              8.8075694280      -57.0233924159       -9.4904763352  W2        847             0.0000000000
      2542       848  TIP3      OH2            13.3863694280      -58.4318824159       -8.7745563352  W2        848             0.0000000000
      2543       848  TIP3      H1             13.9901294280      -57.8843424159       -9.2764563352  W2        848             0.0000000000
      2544       848  TIP3      H2             12.5165694280      -58.1128424159       -9.0151463352  W2        848             0.0000000000
      2545       849  TIP3      OH2            15.1134094280      -57.2930124159      -10.4414663352  W2        849             0.0000000000
      2546       849  TIP3      H1             15.7251594280      -57.8074424159      -10.9681063352  W2        849             0.0000000000
      2547       849  TIP3      H2             15.4957494280      -56.4158024159      -10.4180263352  W2        849             0.0000000000
      2548       850  TIP3      OH2             0.5703994280      -57.9052524159      -11.0652763352  W2        850             0.0000000000
      2549       850  TIP3      H1             -0.2066205720      -58.1397624159      -11.5726863352  W2        850             0.0000000000
      2550       850  TIP3      H2              1.1007594280      -58.7020424159      -11.0564763352  W2        850             0.0000000000
      2551       851  TIP3      OH2            -0.5932605720      -58.1074424159      -15.2616663352  W2        851             0.0000000000
      2552       851  TIP3      H1             -0.1541905720      -57.4963924159      -15.8533163352  W2        851             0.0000000000
      2553       851  TIP3      H2             -1.2270205720      -57.5690324159      -14.7876663352  W2        851             0.0000000000
      2554       852  TIP3      OH2             5.1496594280      -57.9785424159      -11.2519663352  W2        852             0.0000000000
      2555       852  TIP3      H1              6.0239994280      -57.5901124159      -11.2815363352  W2        852             0.0000000000
      2556       852  TIP3      H2              5.0137394280      -58.1937624159      -10.3292463352  W2        852             0.0000000000
      2557       853  TIP3      OH2            10.7064994280      -57.9485624159       -9.6027963352  W2        853             0.0000000000
      2558       853  TIP3      H1             10.7826594280      -57.8534024159      -10.5521963352  W2        853             0.0000000000
      2559       853  TIP3      H2             10.4314194280      -58.8562724159       -9.4738863352  W2        853             0.0000000000
      2560       854  TIP3      OH2            12.0597594280      -57.9227824159      -13.9102963352  W2        854             0.0000000000
      2561       854  TIP3      H1             11.3568694280      -57.3078624159      -14.1201563352  W2        854             0.0000000000
      2562       854  TIP3      H2             11.6148994280      -58.7601124159      -13.7792063352  W2        854             0.0000000000
      2563       855  TIP3      OH2            -0.6923105720      -42.1592224159      -14.3641563352  W2        855             0.0000000000
      2564       855  TIP3      H1             -1.3773205720      -42.1973324159      -15.0316463352  W2        855             0.0000000000
      2565       855  TIP3      H2             -0.6885905720      -41.2464624159      -14.0759463352  W2        855             0.0000000000
      2566       856  TIP3      OH2             1.2676494280      -56.1912924159      -16.8192563352  W2        856             0.0000000000
      2567       856  TIP3      H1              1.7589894280      -56.8210524159      -17.3467063352  W2        856             0.0000000000
      2568       856  TIP3      H2              1.8912794280      -55.8953524159      -16.1561363352  W2        856             0.0000000000
      2569       857  TIP3      OH2             6.2936594280      -55.8981424159      -14.3622063352  W2        857             0.0000000000
      2570       857  TIP3      H1              6.4717894280      -56.5448224159      -13.6793463352  W2        857             0.0000000000
      2571       857  TIP3      H2              6.2402794280      -55.0643724159      -13.8950963352  W2        857             0.0000000000
      2572       858  TIP3      OH2             8.1720394280      -40.9497324159      -15.9665363352  W2        858             0.0000000000
      2573       858  TIP3      H1              9.0380594280      -40.5829924159      -16.1447163352  W2        858             0.0000000000
      2574       858  TIP3      H2              7.9253194280      -41.3889324159      -16.7804563352  W2        858             0.0000000000
      2575       859  TIP3      OH2            14.8809994280      -41.3867024159      -13.2874263352  W2        859             0.0000000000
      2576       859  TIP3      H1             14.6867094280      -42.1344924159      -13.8524663352  W2        859             0.0000000000
      2577       859  TIP3      H2             14.8420094280      -40.6286924159      -13.8706363352  W2        859             0.0000000000
      2578       860  TIP3      OH2             0.5281994280      -57.3910624159       -1.5476563352  W2        860             0.0000000000
      2579       860  TIP3      H1              0.1620194280      -58.1568024159       -1.1051863352  W2        860             0.0000000000
      2580       860  TIP3      H2              1.4410494280      -57.3620424159       -1.2611463352  W2        860             0.0000000000
      2581       861  TIP3      OH2             2.5012794280      -58.0406224159       -0.0119463352  W2        861             0.0000000000
      2582       861  TIP3      H1              3.3996394280      -58.3146024159       -0.1966063352  W2        861             0.0000000000
      2583       861  TIP3      H2              2.1145894280      -58.7830224159        0.4523136648  W2        861             0.0000000000
      2584       862  TIP3      OH2             1.1258094280      -41.2391424159      -17.3389463352  W2        862             0.0000000000
      2585       862  TIP3      H1              0.8582694280      -40.9528524159      -16.4656363352  W2        862             0.0000000000
      2586       862  TIP3      H2              1.8970694280      -41.7852224159      -17.1866963352  W2        862             0.0000000000
      2587       863  TIP3      OH2            10.9225094280      -58.7080924159        0.1703336648  W2        863             0.0000000000
      2588       863  TIP3      H1             10.9992294280      -59.1340224159        1.0241036648  W2        863             0.0000000000
      2589       863  TIP3      H2             11.8161694280      -58.6946224159       -0.1723163352  W2        863             0.0000000000
      2590       864  TIP3      OH2            14.0986194280      -42.6354624159       -1.1372463352  W2        864             0.0000000000
      2591       864  TIP3      H1             13.3168094280      -42.8216624159       -1.6571863352  W2        864             0.0000000000
      2592       864  TIP3      H2             14.0266094280      -41.7060324159       -0.9199963352  W2        864             0.0000000000
      2593       865  TIP3      OH2            28.5046594280      -48.7490224159      -11.1065263352  W2        865             0.0000000000
      2594       865  TIP3      H1             28.5937694280      -47.8052024159      -11.2388163352  W2        865             0.0000000000
      2595       865  TIP3      H2             27.8664194280      -49.0243824159      -11.7645863352  W2        865             0.0000000000
      2596       866  TIP3      OH2            27.4377894280      -49.4939524159       -7.6877063352  W2        866             0.0000000000
      2597       866  TIP3      H1             27.3995394280      -50.1403224159       -6.9827463352  W2        866             0.0000000000
      2598       866  TIP3      H2             27.1154394280      -49.9605124159       -8.4588363352  W2        866             0.0000000000
      2599       867  TIP3      OH2            19.8062894280      -49.8797424159       -6.0947163352  W2        867             0.0000000000
      2600       867  TIP3      H1             19.8474994280      -50.5054124159       -5.3714763352  W2        867             0.0000000000
      2601       867  TIP3      H2             20.5090594280      -49.2558824159       -5.9126763352  W2        867             0.0000000000
      2602       868  TIP3      OH2            31.1438094280      -46.5549124159       -9.3861963352  W2        868             0.0000000000
      2603       868  TIP3      H1             30.7030794280      -47.2753124159       -8.9356363352  W2        868             0.0000000000
      2604       868  TIP3      H2             31.1307794280      -45.8341924159       -8.7564263352  W2        868             0.0000000000
      2605       869  TIP3      OH2            20.7295994280      -45.4298524159       -7.5598063352  W2        869             0.0000000000
      2606       869  TIP3      H1             20.3601194280      -46.2318024159       -7.9293763352  W2        869             0.0000000000
      2607       869  TIP3      H2             21.6707094280      -45.5983624159       -7.5134663352  W2        869             0.0000000000
      2608       870  TIP3      OH2            17.3396494280      -51.7695924159      -12.1669263352  W2        870             0.0000000000
      2609       870  TIP3      H1             16.8919894280      -50.9237224159      -12.1852763352  W2        870             0.0000000000
      2610       870  TIP3      H2             16.7787694280      -52.3491724159      -12.6824163352  W2        870             0.0000000000
      2611       871  TIP3      OH2            18.0502594280      -49.6076324159      -10.0411263352  W2        871             0.0000000000
      2612       871  TIP3      H1             18.2636094280      -50.3774724159       -9.5138263352  W2        871             0.0000000000
      2613       871  TIP3      H2             18.7880194280      -49.5179624159      -10.6443663352  W2        871             0.0000000000
      2614       872  TIP3      OH2            28.2553594280      -41.4507424159       -9.1741563352  W2        872             0.0000000000
      2615       872  TIP3      H1             28.8749994280      -42.1272724159       -9.4472363352  W2        872             0.0000000000
      2616       872  TIP3      H2             28.0470994280      -41.6686624159       -8.2656663352  W2        872             0.0000000000
      2617       873  TIP3      OH2            25.8272294280      -47.0618124159       -7.2816063352  W2        873             0.0000000000
      2618       873  TIP3      H1             26.1310194280      -47.7476724159       -7.8761963352  W2        873             0.0000000000
      2619       873  TIP3      H2             26.5486294280      -46.9429424159       -6.6638063352  W2        873             0.0000000000
      2620       874  TIP3      OH2            34.4902094280      -55.4602824159       -6.4209863352  W2        874             0.0000000000
      2621       874  TIP3      H1             34.5394294280      -54.8501624159       -5.6850763352  W2        874             0.0000000000
      2622       874  TIP3      H2             34.9157194280      -54.9991924159       -7.1438763352  W2        874             0.0000000000
      2623       875  TIP3      OH2            28.9679294280      -52.6675724159       -6.9541263352  W2        875             0.0000000000
      2624       875  TIP3      H1             29.1105194280      -53.6138724159       -6.9339663352  W2        875             0.0000000000
      2625       875  TIP3      H2             28.8618294280      -52.4605924159       -7.8826363352  W2        875             0.0000000000
      2626       876  TIP3      OH2            22.1227594280      -54.5659324159       -9.6816463352  W2        876             0.0000000000
      2627       876  TIP3      H1             22.1658694280      -53.7060824159      -10.1000163352  W2        876             0.0000000000
      2628       876  TIP3      H2             21.6651694280      -55.1184624159      -10.3153263352  W2        876             0.0000000000
      2629       877  TIP3      OH2            29.8450294280      -54.4353724159      -11.2808163352  W2        877             0.0000000000
      2630       877  TIP3      H1             30.4914594280      -54.7640524159      -10.6560563352  W2        877             0.0000000000
      2631       877  TIP3      H2             30.3549694280      -53.9174724159      -11.9036763352  W2        877             0.0000000000
      2632       878  TIP3      OH2            18.7429094280      -52.1693524159       -8.9195063352  W2        878             0.0000000000
      2633       878  TIP3      H1             19.3965694280      -52.7191824159       -8.4874963352  W2        878             0.0000000000
      2634       878  TIP3      H2             18.7668394280      -52.4434524159       -9.8363063352  W2        878             0.0000000000
      2635       879  TIP3      OH2            23.8993594280      -50.6192224159       -9.7043563352  W2        879             0.0000000000
      2636       879  TIP3      H1             24.5154594280      -51.1456824159       -9.1949563352  W2        879             0.0000000000
      2637       879  TIP3      H2             23.3132394280      -51.2593524159      -10.1079963352  W2        879             0.0000000000
      2638       880  TIP3      OH2            34.8816694280      -53.9823624159       -4.1850063352  W2        880             0.0000000000
      2639       880  TIP3      H1             34.1931294280      -53.3242924159       -4.2803463352  W2        880             0.0000000000
      2640       880  TIP3      H2             34.8971294280      -54.1795724159       -3.2484663352  W2        880             0.0000000000
      2641       881  TIP3      OH2            20.9329494280      -55.6480924159       -5.6075663352  W2        881             0.0000000000
      2642       881  TIP3      H1             20.7141194280      -55.1180324159       -6.3739663352  W2        881             0.0000000000
      2643       881  TIP3      H2             20.2650394280      -55.4215424159       -4.9604263352  W2        881             0.0000000000
      2644       882  TIP3      OH2            28.3019294280      -46.1479824159      -12.0636563352  W2        882             0.0000000000
      2645       882  TIP3      H1             28.0064394280      -46.4707524159      -12.9149663352  W2        882             0.0000000000
      2646       882  TIP3      H2             27.9777094280      -45.2483124159      -12.0223963352  W2        882             0.0000000000
      2647       883  TIP3      OH2            23.5020894280      -47.9725224159       -5.3201963352  W2        883             0.0000000000
      2648       883  TIP3      H1             22.7619994280      -47.3743724159       -5.2166763352  W2        883             0.0000000000
      2649       883  TIP3      H2             24.2160394280      -47.4185624159       -5.6358363352  W2        883             0.0000000000
      2650       884  TIP3      OH2            31.6088694280      -55.1444424159       -9.3002263352  W2        884             0.0000000000
      2651       884  TIP3      H1             31.3936694280      -55.9101024159       -8.7676263352  W2        884             0.0000000000
      2652       884  TIP3      H2             32.2646094280      -54.6719824159       -8.7873763352  W2        884             0.0000000000
      2653       885  TIP3      OH2            20.5266794280      -53.7559124159       -7.6553463352  W2        885             0.0000000000
      2654       885  TIP3      H1             21.1403094280      -53.1231524159       -7.2821063352  W2        885             0.0000000000
      2655       885  TIP3      H2             21.0387494280      -54.2284124159       -8.3116563352  W2        885             0.0000000000
      2656       886  TIP3      OH2            21.9095194280      -46.0082224159       -4.5330463352  W2        886             0.0000000000
      2657       886  TIP3      H1             21.9042794280      -45.1288724159       -4.9111163352  W2        886             0.0000000000
      2658       886  TIP3      H2             21.0559294280      -46.0918124159       -4.1080563352  W2        886             0.0000000000
      2659       887  TIP3      OH2            18.0306094280      -46.3374324159      -13.7511163352  W2        887             0.0000000000
      2660       887  TIP3      H1             17.7586994280      -46.1083324159      -14.6398263352  W2        887             0.0000000000
      2661       887  TIP3      H2             18.0761794280      -45.4995524159      -13.2905863352  W2        887             0.0000000000
      2662       888  TIP3      OH2            31.6555794280      -44.7158424159       -7.0382663352  W2        888             0.0000000000
      2663       888  TIP3      H1             30.7139494280      -44.6574524159       -6.8765763352  W2        888             0.0000000000
      2664       888  TIP3      H2             31.9321894280      -43.8097924159       -7.1752963352  W2        888             0.0000000000
      2665       889  TIP3      OH2            31.9562794280      -56.4293124159       -5.6208763352  W2        889             0.0000000000
      2666       889  TIP3      H1             31.2201994280      -55.8186024159       -5.6587463352  W2        889             0.0000000000
      2667       889  TIP3      H2             32.6396794280      -56.0144124159       -6.1472363352  W2        889             0.0000000000
      2668       890  TIP3      OH2            24.9594194280      -58.3425824159       -8.1550763352  W2        890             0.0000000000
      2669       890  TIP3      H1             24.8418394280      -59.2909824159       -8.2092463352  W2        890             0.0000000000
      2670       890  TIP3      H2             24.1044294280      -58.0099724159       -7.8819663352  W2        890             0.0000000000
      2671       891  TIP3      OH2            29.9076994280      -42.9344924159      -10.4131063352  W2        891             0.0000000000
      2672       891  TIP3      H1             30.3329294280      -43.6417024159      -10.8981463352  W2        891             0.0000000000
      2673       891  TIP3      H2             30.2246994280      -42.1332224159      -10.8298863352  W2        891             0.0000000000
      2674       892  TIP3      OH2            31.0673494280      -45.0336424159      -11.9044463352  W2        892             0.0000000000
      2675       892  TIP3      H1             30.8098294280      -45.7236324159      -12.5158563352  W2        892             0.0000000000
      2676       892  TIP3      H2             31.1384294280      -45.4765224159      -11.0588563352  W2        892             0.0000000000
      2677       893  TIP3      OH2            32.7533694280      -46.4669724159       -3.4270963352  W2        893             0.0000000000
      2678       893  TIP3      H1             32.8929994280      -47.0587224159       -4.1663963352  W2        893             0.0000000000
      2679       893  TIP3      H2             32.9206494280      -45.5943824159       -3.7832163352  W2        893             0.0000000000
      2680       894  TIP3      OH2            27.2259094280      -49.5050224159      -13.6544963352  W2        894             0.0000000000
      2681       894  TIP3      H1             26.5144594280      -48.9700524159      -14.0064463352  W2        894             0.0000000000
      2682       894  TIP3      H2             27.9168694280      -49.4498124159      -14.3146063352  W2        894             0.0000000000
      2683       895  TIP3      OH2            27.2798294280      -51.0475924159      -16.6159963352  W2        895             0.0000000000
      2684       895  TIP3      H1             27.9808194280      -51.0249024159      -15.9645963352  W2        895             0.0000000000
      2685       895  TIP3      H2             27.5821194280      -51.6756224159      -17.2720663352  W2        895             0.0000000000
      2686       896  TIP3      OH2            34.5952994280      -50.1271724159       -5.3610563352  W2        896             0.0000000000
      2687       896  TIP3      H1             33.9427094280      -49.4326124159       -5.2719663352  W2        896             0.0000000000
      2688       896  TIP3      H2             35.0603294280      -49.9170824159       -6.1708963352  W2        896             0.0000000000
      2689       897  TIP3      OH2            30.6316794280      -49.2956924159      -12.7029063352  W2        897             0.0000000000
      2690       897  TIP3      H1             29.8997794280      -49.0673224159      -12.1298463352  W2        897             0.0000000000
      2691       897  TIP3      H2             31.0788994280      -50.0094224159      -12.2481563352  W2        897             0.0000000000
      2692       898  TIP3      OH2            30.5290294280      -51.1214324159       -3.6352063352  W2        898             0.0000000000
      2693       898  TIP3      H1             30.6089394280      -50.3579924159       -3.0633563352  W2        898             0.0000000000
      2694       898  TIP3      H2             29.9277994280      -50.8421924159       -4.3256963352  W2        898             0.0000000000
      2695       899  TIP3      OH2            22.2770494280      -48.6650724159      -10.8204063352  W2        899             0.0000000000
      2696       899  TIP3      H1             21.9465694280      -49.0357324159      -11.6387063352  W2        899             0.0000000000
      2697       899  TIP3      H2             22.8654594280      -49.3356724159      -10.4735763352  W2        899             0.0000000000
      2698       900  TIP3      OH2            23.6437994280      -45.2370124159       -8.1391863352  W2        900             0.0000000000
      2699       900  TIP3      H1             23.5489294280      -45.8157024159       -8.8957263352  W2        900             0.0000000000
      2700       900  TIP3      H2             24.3731594280      -45.6084424159       -7.6429063352  W2        900             0.0000000000
      2701       901  TIP3      OH2            22.6435994280      -49.8965124159       -7.1869063352  W2        901             0.0000000000
      2702       901  TIP3      H1             23.2088494280      -49.7750924159       -7.9497863352  W2        901             0.0000000000
      2703       901  TIP3      H2             22.9624894280      -49.2590124159       -6.5480563352  W2        901             0.0000000000
      2704       902  TIP3      OH2            28.9528194280      -44.3933224159       -6.4528563352  W2        902             0.0000000000
      2705       902  TIP3      H1             28.7124794280      -43.7310124159       -5.8049363352  W2        902             0.0000000000
      2706       902  TIP3      H2             28.7546394280      -45.2278024159       -6.0278963352  W2        902             0.0000000000
      2707       903  TIP3      OH2            23.5236694280      -45.4972424159       -2.4697163352  W2        903             0.0000000000
      2708       903  TIP3      H1             23.2124194280      -44.7149224159       -2.0143963352  W2        903             0.0000000000
      2709       903  TIP3      H2             22.8736894280      -45.6503324159       -3.1555163352  W2        903             0.0000000000
      2710       904  TIP3      OH2            29.5026294280      -50.1334024159      -15.0177863352  W2        904             0.0000000000
      2711       904  TIP3      H1             30.0821794280      -49.9833724159      -14.2708963352  W2        904             0.0000000000
      2712       904  TIP3      H2             29.9166294280      -49.6626624159      -15.7411463352  W2        904             0.0000000000
      2713       905  TIP3      OH2            20.4436594280      -49.2991324159       -3.2411463352  W2        905             0.0000000000
      2714       905  TIP3      H1             20.5139794280      -48.6484524159       -2.5426463352  W2        905             0.0000000000
      2715       905  TIP3      H2             19.5528794280      -49.1963824159       -3.5760563352  W2        905             0.0000000000
      2716       906  TIP3      OH2            27.2291194280      -43.3965524159      -11.5824763352  W2        906             0.0000000000
      2717       906  TIP3      H1             27.7028794280      -43.1009224159      -10.8050563352  W2        906             0.0000000000
      2718       906  TIP3      H2             26.6660494280      -42.6583924159      -11.8155163352  W2        906             0.0000000000
      2719       907  TIP3      OH2            21.7632594280      -43.4257424159       -1.7063363352  W2        907             0.0000000000
      2720       907  TIP3      H1             21.7707894280      -43.5617724159       -2.6537863352  W2        907             0.0000000000
      2721       907  TIP3      H2             20.8472994280      -43.5429324159       -1.4543363352  W2        907             0.0000000000
      2722       908  TIP3      OH2            33.2014694280      -58.3833624159      -15.2048163352  W2        908             0.0000000000
      2723       908  TIP3      H1             32.3015394280      -58.2444624159      -14.9097563352  W2        908             0.0000000000
      2724       908  TIP3      H2             33.4533094280      -57.5519024159      -15.6066463352  W2        908             0.0000000000
      2725       909  TIP3      OH2            21.2673194280      -49.5956424159      -13.2311263352  W2        909             0.0000000000
      2726       909  TIP3      H1             20.9754494280      -48.8274724159      -13.7219963352  W2        909             0.0000000000
      2727       909  TIP3      H2             20.5928394280      -50.2550224159      -13.3939863352  W2        909             0.0000000000
      2728       910  TIP3      OH2            34.3906094280      -44.0171224159      -16.8284263352  W2        910             0.0000000000
      2729       910  TIP3      H1             34.4639594280      -43.0781024159      -16.6578963352  W2        910             0.0000000000
      2730       910  TIP3      H2             35.2961194280      -44.3222624159      -16.8846963352  W2        910             0.0000000000
      2731       911  TIP3      OH2            17.3603294280      -47.2327224159       -4.4161463352  W2        911             0.0000000000
      2732       911  TIP3      H1             16.8591694280      -47.2607824159       -5.2311763352  W2        911             0.0000000000
      2733       911  TIP3      H2             17.3656994280      -48.1384024159       -4.1064163352  W2        911             0.0000000000
      2734       912  TIP3      OH2            17.1105994280      -44.4523424159       -7.5321263352  W2        912             0.0000000000
      2735       912  TIP3      H1             18.0566594280      -44.5966424159       -7.5511763352  W2        912             0.0000000000
      2736       912  TIP3      H2             16.9982294280      -43.6680624159       -6.9950063352  W2        912             0.0000000000
      2737       913  TIP3      OH2            35.3084494280      -43.7863724159       -1.8497563352  W2        913             0.0000000000
      2738       913  TIP3      H1             35.2591294280      -44.7415624159       -1.8869963352  W2        913             0.0000000000
      2739       913  TIP3      H2             34.4816794280      -43.5188424159       -1.4483763352  W2        913             0.0000000000
      2740       914  TIP3      OH2            26.2868494280      -44.2124524159       -2.9736163352  W2        914             0.0000000000
      2741       914  TIP3      H1             26.3743094280      -43.3859924159       -2.4987063352  W2        914             0.0000000000
      2742       914  TIP3      H2             25.4233594280      -44.5420724159       -2.7246863352  W2        914             0.0000000000
      2743       915  TIP3      OH2            26.7014294280      -40.4400824159      -13.1675563352  W2        915             0.0000000000
      2744       915  TIP3      H1             26.6260294280      -40.5613624159      -14.1140363352  W2        915             0.0000000000
      2745       915  TIP3      H2             26.7342994280      -39.4908124159      -13.0490963352  W2        915             0.0000000000
      2746       916  TIP3      OH2            20.3548094280      -41.6513824159      -11.3866563352  W2        916             0.0000000000
      2747       916  TIP3      H1             20.5068494280      -41.9993424159      -10.5080063352  W2        916             0.0000000000
      2748       916  TIP3      H2             19.5038494280      -42.0076524159      -11.6419363352  W2        916             0.0000000000
      2749       917  TIP3      OH2            29.8030294280      -41.2860624159      -16.1653163352  W2        917             0.0000000000
      2750       917  TIP3      H1             30.1778694280      -42.0304524159      -16.6360563352  W2        917             0.0000000000
      2751       917  TIP3      H2             29.8073994280      -41.5560024159      -15.2469863352  W2        917             0.0000000000
      2752       918  TIP3      OH2            29.4718394280      -41.3603524159      -13.4160963352  W2        918             0.0000000000
      2753       918  TIP3      H1             28.5368194280      -41.2601624159      -13.2373963352  W2        918             0.0000000000
      2754       918  TIP3      H2             29.7520294280      -42.0697524159      -12.8377763352  W2        918             0.0000000000
      2755       919  TIP3      OH2            32.4604294280      -52.2931224159       -1.3695363352  W2        919             0.0000000000
      2756       919  TIP3      H1             32.0531094280      -51.8125624159       -2.0902063352  W2        919             0.0000000000
      2757       919  TIP3      H2             32.5009994280      -53.1985224159       -1.6774563352  W2        919             0.0000000000
      2758       920  TIP3      OH2            19.6093794280      -45.9091824159       -3.3728663352  W2        920             0.0000000000
      2759       920  TIP3      H1             19.8255094280      -46.2706224159       -2.5132863352  W2        920             0.0000000000
      2760       920  TIP3      H2             18.7538494280      -46.2838024159       -3.5825163352  W2        920             0.0000000000
      2761       921  TIP3      OH2            22.2281794280      -57.4391324159       -7.3774463352  W2        921             0.0000000000
      2762       921  TIP3      H1             21.3665494280      -57.5263124159       -7.7851563352  W2        921             0.0000000000
      2763       921  TIP3      H2             22.2057494280      -56.5831224159       -6.9496863352  W2        921             0.0000000000
      2764       922  TIP3      OH2            26.8909594280      -57.7170924159       -4.0027463352  W2        922             0.0000000000
      2765       922  TIP3      H1             27.3112694280      -58.1323824159       -3.2496863352  W2        922             0.0000000000
      2766       922  TIP3      H2             25.9579194280      -57.8957624159       -3.8855463352  W2        922             0.0000000000
      2767       923  TIP3      OH2            30.2174494280      -53.9615724159       -3.1492963352  W2        923             0.0000000000
      2768       923  TIP3      H1             29.7033994280      -54.0873524159       -2.3516963352  W2        923             0.0000000000
      2769       923  TIP3      H2             30.0619194280      -53.0492624159       -3.3936763352  W2        923             0.0000000000
      2770       924  TIP3      OH2            30.9799394280      -49.1005724159      -17.3879963352  W2        924             0.0000000000
      2771       924  TIP3      H1             31.0220194280      -49.3231824159      -18.3179963352  W2        924             0.0000000000
      2772       924  TIP3      H2             31.8291494280      -48.7018624159      -17.1980063352  W2        924             0.0000000000
      2773       925  TIP3      OH2            26.5526894280      -55.2247524159      -16.7176663352  W2        925             0.0000000000
      2774       925  TIP3      H1             26.2991694280      -55.2055924159      -15.7948563352  W2        925             0.0000000000
      2775       925  TIP3      H2             26.2958994280      -56.0962124159      -17.0190463352  W2        925             0.0000000000
      2776       926  TIP3      OH2            22.3191894280      -52.4736824159       -6.2824263352  W2        926             0.0000000000
      2777       926  TIP3      H1             21.6773994280      -52.5139524159       -5.5734163352  W2        926             0.0000000000
      2778       926  TIP3      H2             22.3563894280      -51.5472124159       -6.5201263352  W2        926             0.0000000000
      2779       927  TIP3      OH2            22.3160994280      -52.2526724159      -11.3704263352  W2        927             0.0000000000
      2780       927  TIP3      H1             21.4233894280      -52.5930624159      -11.4290463352  W2        927             0.0000000000
      2781       927  TIP3      H2             22.7667594280      -52.6295824159      -12.1261063352  W2        927             0.0000000000
      2782       928  TIP3      OH2            27.8516494280      -51.8366424159      -12.5533463352  W2        928             0.0000000000
      2783       928  TIP3      H1             27.4426794280      -51.0217824159      -12.8448663352  W2        928             0.0000000000
      2784       928  TIP3      H2             28.5722694280      -51.9766324159      -13.1676363352  W2        928             0.0000000000
      2785       929  TIP3      OH2            26.9538094280      -51.6610024159       -1.0652763352  W2        929             0.0000000000
      2786       929  TIP3      H1             26.3911894280      -52.3658424159       -0.7444963352  W2        929             0.0000000000
      2787       929  TIP3      H2             27.7801494280      -51.7818124159       -0.5975163352  W2        929             0.0000000000
      2788       930  TIP3      OH2            28.8564194280      -52.3906024159       -9.7393763352  W2        930             0.0000000000
      2789       930  TIP3      H1             28.6608694280      -51.7849224159      -10.4543163352  W2        930             0.0000000000
      2790       930  TIP3      H2             29.0376794280      -53.2240824159      -10.1737463352  W2        930             0.0000000000
      2791       931  TIP3      OH2            20.0692394280      -52.1533324159       -4.4152263352  W2        931             0.0000000000
      2792       931  TIP3      H1             20.0311794280      -51.7531724159       -3.5465163352  W2        931             0.0000000000
      2793       931  TIP3      H2             19.5783494280      -52.9700924159       -4.3249363352  W2        931             0.0000000000
      2794       932  TIP3      OH2            23.4349794280      -54.7791024159      -17.6166263352  W2        932             0.0000000000
      2795       932  TIP3      H1             23.0040494280      -55.2240924159      -16.8868863352  W2        932             0.0000000000
      2796       932  TIP3      H2             22.7168494280      -54.4074724159      -18.1288763352  W2        932             0.0000000000
      2797       933  TIP3      OH2            16.6773194280      -55.0371524159      -10.5647563352  W2        933             0.0000000000
      2798       933  TIP3      H1             17.3080894280      -55.0659424159       -9.8453663352  W2        933             0.0000000000
      2799       933  TIP3      H2             17.1267494280      -55.4622824159      -11.2951663352  W2        933             0.0000000000
      2800       934  TIP3      OH2            17.9515294280      -54.2909524159      -15.1407163352  W2        934             0.0000000000
      2801       934  TIP3      H1             18.4256994280      -53.6999624159      -15.7256263352  W2        934             0.0000000000
      2802       934  TIP3      H2             17.2341694280      -53.7606624159      -14.7937063352  W2        934             0.0000000000
      2803       935  TIP3      OH2            28.1203394280      -50.7524724159       -5.0681363352  W2        935             0.0000000000
      2804       935  TIP3      H1             28.4438194280      -51.3835024159       -5.7110863352  W2        935             0.0000000000
      2805       935  TIP3      H2             27.6802694280      -51.2872524159       -4.4073963352  W2        935             0.0000000000
      2806       936  TIP3      OH2            24.8976294280      -54.8249224159      -10.2840163352  W2        936             0.0000000000
      2807       936  TIP3      H1             23.9867394280      -54.7682424159       -9.9954163352  W2        936             0.0000000000
      2808       936  TIP3      H2             25.4029194280      -54.8853724159       -9.4732963352  W2        936             0.0000000000
      2809       937  TIP3      OH2            19.7259694280      -53.1962924159      -11.4572563352  W2        937             0.0000000000
      2810       937  TIP3      H1             18.8367694280      -53.0967424159      -11.7972963352  W2        937             0.0000000000
      2811       937  TIP3      H2             20.0224594280      -54.0379924159      -11.8034663352  W2        937             0.0000000000
      2812       938  TIP3      OH2            23.3791494280      -53.1960324159      -13.8007963352  W2        938             0.0000000000
      2813       938  TIP3      H1             24.3106994280      -53.0670324159      -13.6224863352  W2        938             0.0000000000
      2814       938  TIP3      H2             23.1641794280      -52.5266024159      -14.4503263352  W2        938             0.0000000000
      2815       939  TIP3      OH2            29.3028194280      -55.5902924159       -7.0198363352  W2        939             0.0000000000
      2816       939  TIP3      H1             28.6259794280      -55.4589824159       -6.3558663352  W2        939             0.0000000000
      2817       939  TIP3      H2             28.8173094280      -55.7453424159       -7.8300663352  W2        939             0.0000000000
      2818       940  TIP3      OH2            22.0531694280      -52.0018124159      -16.2341863352  W2        940             0.0000000000
      2819       940  TIP3      H1             21.5106794280      -52.3814324159      -16.9254263352  W2        940             0.0000000000
      2820       940  TIP3      H2             22.8866594280      -51.8073424159      -16.6627763352  W2        940             0.0000000000
      2821       941  TIP3      OH2            32.5903294280      -39.9187524159       -0.7430763352  W2        941             0.0000000000
      2822       941  TIP3      H1             32.7901994280      -39.4945624159       -1.5775463352  W2        941             0.0000000000
      2823       941  TIP3      H2             33.2456994280      -39.5749324159       -0.1360363352  W2        941             0.0000000000
      2824       942  TIP3      OH2            20.1883094280      -47.4446224159       -1.1350263352  W2        942             0.0000000000
      2825       942  TIP3      H1             20.9205494280      -47.1900324159       -0.5735763352  W2        942             0.0000000000
      2826       942  TIP3      H2             19.4081794280      -47.2400824159       -0.6194863352  W2        942             0.0000000000
      2827       943  TIP3      OH2            26.2175994280      -52.0376224159       -8.3970563352  W2        943             0.0000000000
      2828       943  TIP3      H1             26.7819394280      -52.5839624159       -8.9440963352  W2        943             0.0000000000
      2829       943  TIP3      H2             26.0699394280      -52.5594324159       -7.6082963352  W2        943             0.0000000000
      2830       944  TIP3      OH2            21.2195694280      -55.9010124159      -11.9785763352  W2        944             0.0000000000
      2831       944  TIP3      H1             20.9025194280      -56.8034824159      -12.0140363352  W2        944             0.0000000000
      2832       944  TIP3      H2             22.0009794280      -55.8992724159      -12.5314163352  W2        944             0.0000000000
      2833       945  TIP3      OH2            24.8441894280      -53.6490124159       -5.9830163352  W2        945             0.0000000000
      2834       945  TIP3      H1             24.0087194280      -53.1950624159       -5.8727763352  W2        945             0.0000000000
      2835       945  TIP3      H2             25.3682494280      -53.3731624159       -5.2310263352  W2        945             0.0000000000
      2836       946  TIP3      OH2            25.3884494280      -47.4362424159      -14.2983763352  W2        946             0.0000000000
      2837       946  TIP3      H1             24.6435494280      -47.9437124159      -14.6205863352  W2        946             0.0000000000
      2838       946  TIP3      H2             25.2541694280      -47.3874424159      -13.3518963352  W2        946             0.0000000000
      2839       947  TIP3      OH2            32.5383394280      -48.3034224159       -5.5116163352  W2        947             0.0000000000
      2840       947  TIP3      H1             33.1802194280      -47.8467924159       -6.0553963352  W2        947             0.0000000000
      2841       947  TIP3      H2             31.7080294280      -48.1901824159       -5.9742063352  W2        947             0.0000000000
      2842       948  TIP3      OH2            29.2861294280      -54.6222524159      -16.0991163352  W2        948             0.0000000000
      2843       948  TIP3      H1             28.3475494280      -54.5106924159      -16.2502363352  W2        948             0.0000000000
      2844       948  TIP3      H2             29.5833394280      -53.7655624159      -15.7925463352  W2        948             0.0000000000
      2845       949  TIP3      OH2            26.9076594280      -47.2519124159       -3.0614663352  W2        949             0.0000000000
      2846       949  TIP3      H1             26.5622694280      -47.6336724159       -2.2545063352  W2        949             0.0000000000
      2847       949  TIP3      H2             26.7076694280      -46.3185524159       -2.9901763352  W2        949             0.0000000000
      2848       950  TIP3      OH2            30.0044794280      -52.7549824159      -14.4383763352  W2        950             0.0000000000
      2849       950  TIP3      H1             30.8963794280      -52.8924824159      -14.1192563352  W2        950             0.0000000000
      2850       950  TIP3      H2             30.0608394280      -51.9643724159      -14.9750263352  W2        950             0.0000000000
      2851       951  TIP3      OH2            20.5132794280      -48.1412424159       -8.5285863352  W2        951             0.0000000000
      2852       951  TIP3      H1             21.2579994280      -48.1436724159       -9.1299363352  W2        951             0.0000000000
      2853       951  TIP3      H2             20.5909394280      -48.9648624159       -8.0470763352  W2        951             0.0000000000
      2854       952  TIP3      OH2            27.5138594280      -45.9778124159      -15.2729163352  W2        952             0.0000000000
      2855       952  TIP3      H1             27.2186994280      -45.1510224159      -14.8914363352  W2        952             0.0000000000
      2856       952  TIP3      H2             26.8108594280      -46.5971224159      -15.0767763352  W2        952             0.0000000000
      2857       953  TIP3      OH2            17.5212494280      -49.6805524159       -3.2137363352  W2        953             0.0000000000
      2858       953  TIP3      H1             17.7441094280      -50.0985924159       -2.3819863352  W2        953             0.0000000000
      2859       953  TIP3      H2             16.9192594280      -50.2930524159       -3.6364563352  W2        953             0.0000000000
      2860       954  TIP3      OH2            24.5377394280      -50.1635624159       -1.0007663352  W2        954             0.0000000000
      2861       954  TIP3      H1             24.2418194280      -50.3292624159       -1.8958563352  W2        954             0.0000000000
      2862       954  TIP3      H2             25.4692594280      -50.3835324159       -1.0113763352  W2        954             0.0000000000
      2863       955  TIP3      OH2            29.1580194280      -44.7903624159       -3.1109663352  W2        955             0.0000000000
      2864       955  TIP3      H1             28.2574494280      -44.6071024159       -3.3785763352  W2        955             0.0000000000
      2865       955  TIP3      H2             29.1921294280      -44.5314324159       -2.1900863352  W2        955             0.0000000000
      2866       956  TIP3      OH2            34.8893494280      -52.5455724159      -14.7437063352  W2        956             0.0000000000
      2867       956  TIP3      H1             34.3349794280      -52.9417724159      -15.4159563352  W2        956             0.0000000000
      2868       956  TIP3      H2             34.9897094280      -51.6350524159      -15.0213763352  W2        956             0.0000000000
      2869       957  TIP3      OH2            34.8525494280      -46.7454024159       -1.9065563352  W2        957             0.0000000000
      2870       957  TIP3      H1             34.0013994280      -46.5070224159       -2.2739163352  W2        957             0.0000000000
      2871       957  TIP3      H2             35.4428894280      -46.7620824159       -2.6598463352  W2        957             0.0000000000
      2872       958  TIP3      OH2            33.1845194280      -43.7595324159      -14.2784963352  W2        958             0.0000000000
      2873       958  TIP3      H1             32.8116294280      -44.5851524159      -13.9694363352  W2        958             0.0000000000
      2874       958  TIP3      H2             33.4618694280      -43.9425924159      -15.1761563352  W2        958             0.0000000000
      2875       959  TIP3      OH2            30.3449094280      -48.9515824159       -7.2573063352  W2        959             0.0000000000
      2876       959  TIP3      H1             29.4165994280      -49.1833924159       -7.2843763352  W2        959             0.0000000000
      2877       959  TIP3      H2             30.7960194280      -49.7286024159       -7.5874263352  W2        959             0.0000000000
      2878       960  TIP3      OH2            22.8882194280      -44.6234224159      -11.1244363352  W2        960             0.0000000000
      2879       960  TIP3      H1             23.4154394280      -43.8499824159      -11.3245563352  W2        960             0.0000000000
      2880       960  TIP3      H2             22.0080694280      -44.3985024159      -11.4260363352  W2        960             0.0000000000
      2881       961  TIP3      OH2            18.6429894280      -49.7610124159      -16.5371963352  W2        961             0.0000000000
      2882       961  TIP3      H1             19.2589794280      -49.1342924159      -16.1577163352  W2        961             0.0000000000
      2883       961  TIP3      H2             17.7812494280      -49.4450324159      -16.2655463352  W2        961             0.0000000000
      2884       962  TIP3      OH2            24.3154494280      -46.9604324159      -11.5480063352  W2        962             0.0000000000
      2885       962  TIP3      H1             24.0744494280      -46.0349924159      -11.5064763352  W2        962             0.0000000000
      2886       962  TIP3      H2             23.5748094280      -47.4193024159      -11.1516163352  W2        962             0.0000000000
      2887       963  TIP3      OH2            24.8301094280      -42.8110724159       -5.2328963352  W2        963             0.0000000000
      2888       963  TIP3      H1             25.1925794280      -41.9565124159       -5.4664563352  W2        963             0.0000000000
      2889       963  TIP3      H2             25.3616294280      -43.1029124159       -4.4922663352  W2        963             0.0000000000
      2890       964  TIP3      OH2            22.9985294280      -41.9386724159      -12.0027863352  W2        964             0.0000000000
      2891       964  TIP3      H1             22.0485794280      -41.8329324159      -11.9514563352  W2        964             0.0000000000
      2892       964  TIP3      H2             23.3503394280      -41.1179324159      -11.6580363352  W2        964             0.0000000000
      2893       965  TIP3      OH2            28.3741894280      -46.7120024159       -5.5323363352  W2        965             0.0000000000
      2894       965  TIP3      H1             27.9483194280      -46.9398324159       -4.7059363352  W2        965             0.0000000000
      2895       965  TIP3      H2             28.9547694280      -47.4508224159       -5.7148063352  W2        965             0.0000000000
      2896       966  TIP3      OH2            30.5770794280      -45.7829524159      -16.4584363352  W2        966             0.0000000000
      2897       966  TIP3      H1             30.9303894280      -46.1629724159      -15.6540863352  W2        966             0.0000000000
      2898       966  TIP3      H2             29.6284294280      -45.8764724159      -16.3715063352  W2        966             0.0000000000
      2899       967  TIP3      OH2            31.0326094280      -42.1600524159       -3.0628563352  W2        967             0.0000000000
      2900       967  TIP3      H1             30.4309294280      -42.7157624159       -3.5582263352  W2        967             0.0000000000
      2901       967  TIP3      H2             31.3139794280      -41.4930724159       -3.6891163352  W2        967             0.0000000000
      2902       968  TIP3      OH2            35.0805194280      -41.3037024159      -16.2574163352  W2        968             0.0000000000
      2903       968  TIP3      H1             35.8243094280      -40.7176524159      -16.3972563352  W2        968             0.0000000000
      2904       968  TIP3      H2             34.3863294280      -40.7351224159      -15.9241763352  W2        968             0.0000000000
      2905       969  TIP3      OH2            19.1551994280      -54.9272824159       -3.6555963352  W2        969             0.0000000000
      2906       969  TIP3      H1             18.2624294280      -54.5887424159       -3.7231963352  W2        969             0.0000000000
      2907       969  TIP3      H2             19.0564794280      -55.7826724159       -3.2375163352  W2        969             0.0000000000
      2908       970  TIP3      OH2            31.4430094280      -47.1107524159      -14.2316463352  W2        970             0.0000000000
      2909       970  TIP3      H1             31.1657694280      -47.8388224159      -13.6755363352  W2        970             0.0000000000
      2910       970  TIP3      H2             32.3703094280      -46.9915524159      -14.0263863352  W2        970             0.0000000000
      2911       971  TIP3      OH2            18.8063994280      -43.1228424159       -5.2206563352  W2        971             0.0000000000
      2912       971  TIP3      H1             19.0234294280      -44.0546024159       -5.2516863352  W2        971             0.0000000000
      2913       971  TIP3      H2             19.0527494280      -42.8483424159       -4.3373763352  W2        971             0.0000000000
      2914       972  TIP3      OH2            24.6678594280      -44.6713424159      -18.0114363352  W2        972             0.0000000000
      2915       972  TIP3      H1             24.9068394280      -45.4195324159      -18.5585463352  W2        972             0.0000000000
      2916       972  TIP3      H2             24.3989894280      -45.0591724159      -17.1786563352  W2        972             0.0000000000
      2917       973  TIP3      OH2            23.6049194280      -45.1009624159      -15.5551763352  W2        973             0.0000000000
      2918       973  TIP3      H1             23.7517194280      -45.6209824159      -14.7650863352  W2        973             0.0000000000
      2919       973  TIP3      H2             23.6020894280      -44.1942024159      -15.2485863352  W2        973             0.0000000000
      2920       974  TIP3      OH2            20.0580294280      -47.8486324159      -15.0446363352  W2        974             0.0000000000
      2921       974  TIP3      H1             19.3719594280      -47.4963824159      -14.4776663352  W2        974             0.0000000000
      2922       974  TIP3      H2             20.5808194280      -47.0856724159      -15.2912063352  W2        974             0.0000000000
      2923       975  TIP3      OH2            27.8895394280      -55.1862524159       -4.7657363352  W2        975             0.0000000000
      2924       975  TIP3      H1             28.5883294280      -55.1123824159       -4.1157663352  W2        975             0.0000000000
      2925       975  TIP3      H2             27.5086794280      -56.0507524159       -4.6114463352  W2        975             0.0000000000
      2926       976  TIP3      OH2            28.6740294280      -55.5340824159      -13.6685063352  W2        976             0.0000000000
      2927       976  TIP3      H1             28.8938594280      -55.0625424159      -14.4719663352  W2        976             0.0000000000
      2928       976  TIP3      H2             29.2324294280      -55.1398224159      -12.9984463352  W2        976             0.0000000000
      2929       977  TIP3      OH2            26.3426394280      -43.4036024159      -14.8057563352  W2        977             0.0000000000
      2930       977  TIP3      H1             25.5262494280      -42.9066324159      -14.7533263352  W2        977             0.0000000000
      2931       977  TIP3      H2             26.8722694280      -42.9282524159      -15.4458763352  W2        977             0.0000000000
      2932       978  TIP3      OH2            25.8740194280      -53.8062024159      -12.8336663352  W2        978             0.0000000000
      2933       978  TIP3      H1             26.6862794280      -53.3018824159      -12.7874963352  W2        978             0.0000000000
      2934       978  TIP3      H2             25.6293194280      -53.9512324159      -11.9197063352  W2        978             0.0000000000
      2935       979  TIP3      OH2            26.4096594280      -52.8199324159       -3.6490063352  W2        979             0.0000000000
      2936       979  TIP3      H1             26.5286894280      -52.2463924159       -2.8919663352  W2        979             0.0000000000
      2937       979  TIP3      H2             27.0651194280      -53.5079924159       -3.5342263352  W2        979             0.0000000000
      2938       980  TIP3      OH2            26.7576894280      -56.7249024159      -11.8955563352  W2        980             0.0000000000
      2939       980  TIP3      H1             26.4110394280      -56.1078424159      -11.2511263352  W2        980             0.0000000000
      2940       980  TIP3      H2             27.4163794280      -56.2243324159      -12.3770063352  W2        980             0.0000000000
      2941       981  TIP3      OH2            23.6809494280      -42.3598824159      -14.8240663352  W2        981             0.0000000000
      2942       981  TIP3      H1             23.8418194280      -41.5601324159      -15.3248063352  W2        981             0.0000000000
      2943       981  TIP3      H2             23.4837294280      -42.0532824159      -13.9390063352  W2        981             0.0000000000
      2944       982  TIP3      OH2            22.4153894280      -55.6619624159      -15.2083063352  W2        982             0.0000000000
      2945       982  TIP3      H1             22.3318694280      -54.7736524159      -14.8616663352  W2        982             0.0000000000
      2946       982  TIP3      H2             23.3054194280      -55.9272924159      -14.9766263352  W2        982             0.0000000000
      2947       983  TIP3      OH2            32.6142394280      -54.9129024159       -2.8140363352  W2        983             0.0000000000
      2948       983  TIP3      H1             31.6978194280      -54.6507324159       -2.9016663352  W2        983             0.0000000000
      2949       983  TIP3      H2             32.9497394280      -54.9160024159       -3.7105063352  W2        983             0.0000000000
      2950       984  TIP3      OH2            31.2163394280      -51.1628024159       -8.7183063352  W2        984             0.0000000000
      2951       984  TIP3      H1             30.4187794280      -51.5777824159       -9.0468063352  W2        984             0.0000000000
      2952       984  TIP3      H2             31.6614494280      -51.8534324159       -8.2272563352  W2        984             0.0000000000
      2953       985  TIP3      OH2            20.6739194280      -45.2347424159      -16.1478563352  W2        985             0.0000000000
      2954       985  TIP3      H1             21.2660694280      -44.5352624159      -15.8716163352  W2        985             0.0000000000
      2955       985  TIP3      H2             21.1332194280      -45.6677924159      -16.8673963352  W2        985             0.0000000000
      2956       986  TIP3      OH2            18.9898394280      -52.5704424159      -17.0319163352  W2        986             0.0000000000
      2957       986  TIP3      H1             18.9450994280      -51.6311324159      -16.8532163352  W2        986             0.0000000000
      2958       986  TIP3      H2             18.1021594280      -52.8059524159      -17.3017063352  W2        986             0.0000000000
      2959       987  TIP3      OH2            32.3027994280      -41.9065524159       -7.0959563352  W2        987             0.0000000000
      2960       987  TIP3      H1             32.1472294280      -41.2281124159       -7.7530263352  W2        987             0.0000000000
      2961       987  TIP3      H2             33.2354394280      -41.8346224159       -6.8928963352  W2        987             0.0000000000
      2962       988  TIP3      OH2            19.7980394280      -57.7887824159       -8.3588163352  W2        988             0.0000000000
      2963       988  TIP3      H1             19.5690194280      -57.7295324159       -9.2863163352  W2        988             0.0000000000
      2964       988  TIP3      H2             19.3553794280      -58.5802324159       -8.0524063352  W2        988             0.0000000000
      2965       989  TIP3      OH2            18.7283694280      -43.8480724159      -12.1982363352  W2        989             0.0000000000
      2966       989  TIP3      H1             17.8962294280      -43.3758024159      -12.1710963352  W2        989             0.0000000000
      2967       989  TIP3      H2             19.2741994280      -43.3383124159      -12.7969263352  W2        989             0.0000000000
      2968       990  TIP3      OH2            18.0167394280      -41.2357024159       -0.8684363352  W2        990             0.0000000000
      2969       990  TIP3      H1             18.5569594280      -41.4523024159       -0.1085163352  W2        990             0.0000000000
      2970       990  TIP3      H2             17.5355394280      -42.0411024159       -1.0581863352  W2        990             0.0000000000
      2971       991  TIP3      OH2            22.6140794280      -42.3162624159        0.7519836648  W2        991             0.0000000000
      2972       991  TIP3      H1             23.3817994280      -42.7751824159        1.0929036648  W2        991             0.0000000000
      2973       991  TIP3      H2             22.5926994280      -42.5422824159       -0.1778963352  W2        991             0.0000000000
      2974       992  TIP3      OH2            26.7060394280      -42.8082024159      -17.8728363352  W2        992             0.0000000000
      2975       992  TIP3      H1             26.0621394280      -43.4393424159      -17.5514663352  W2        992             0.0000000000
      2976       992  TIP3      H2             27.4678694280      -43.3394024159      -18.1044863352  W2        992             0.0000000000
      2977       993  TIP3      OH2            29.1909494280      -43.9361524159       -0.5188663352  W2        993             0.0000000000
      2978       993  TIP3      H1             28.8398994280      -44.7928524159       -0.2758263352  W2        993             0.0000000000
      2979       993  TIP3      H2             29.9172694280      -43.7934824159        0.0880336648  W2        993             0.0000000000
      2980       994  TIP3      OH2            31.3103294280      -42.9912124159      -17.6390363352  W2        994             0.0000000000
      2981       994  TIP3      H1             31.5933694280      -43.7856924159      -17.1863463352  W2        994             0.0000000000
      2982       994  TIP3      H2             32.0501194280      -42.7581124159      -18.1999263352  W2        994             0.0000000000
      2983       995  TIP3      OH2            17.9236894280      -47.4252924159        0.0859936648  W2        995             0.0000000000
      2984       995  TIP3      H1             18.0677394280      -48.3272224159       -0.2003363352  W2        995             0.0000000000
      2985       995  TIP3      H2             17.1514294280      -47.1390824159       -0.4017763352  W2        995             0.0000000000
      2986       996  TIP3      OH2            22.2650594280      -47.0817224159      -17.7815463352  W2        996             0.0000000000
      2987       996  TIP3      H1             22.3294694280      -47.8757624159      -17.2509063352  W2        996             0.0000000000
      2988       996  TIP3      H2             22.9179794280      -47.2004424159      -18.4713463352  W2        996             0.0000000000
      2989       997  TIP3      OH2            24.5792994280      -47.4554824159       -0.4813663352  W2        997             0.0000000000
      2990       997  TIP3      H1             24.2506794280      -47.1846724159       -1.3386263352  W2        997             0.0000000000
      2991       997  TIP3      H2             24.7311194280      -48.3965024159       -0.5688663352  W2        997             0.0000000000
      2992       998  TIP3      OH2            27.6173994280      -46.0345524159      -18.0457463352  W2        998             0.0000000000
      2993       998  TIP3      H1             27.3488094280      -45.8543424159      -17.1448563352  W2        998             0.0000000000
      2994       998  TIP3      H2             27.4109594280      -46.9599324159      -18.1771663352  W2        998             0.0000000000
      2995       999  TIP3      OH2            30.3138194280      -47.5397524159       -3.0981363352  W2        999             0.0000000000
      2996       999  TIP3      H1             31.0592994280      -46.9513824159       -3.2177363352  W2        999             0.0000000000
      2997       999  TIP3      H2             29.5564994280      -46.9577824159       -3.0348263352  W2        999             0.0000000000
      2998      1000  TIP3      OH2            18.7563394280      -50.2249624159       -0.4940763352  W2        1000            0.0000000000
      2999      1000  TIP3      H1             19.1644594280      -51.0823024159       -0.6150163352  W2        1000            0.0000000000
      3000      1000  TIP3      H2             18.4960994280      -50.2108324159        0.4269536648  W2        1000            0.0000000000
      3001      1001  TIP3      OH2            23.4144394280      -49.1091024159      -15.4757463352  W2        1001            0.0000000000
      3002      1001  TIP3      H1             22.9546394280      -49.5932724159      -14.7898963352  W2        1001            0.0000000000
      3003      1001  TIP3      H2             23.6693094280      -49.7775624159      -16.1116963352  W2        1001            0.0000000000
      3004      1002  TIP3      OH2            22.7033694280      -51.2163924159       -3.1197863352  W2        1002            0.0000000000
      3005      1002  TIP3      H1             22.0849794280      -50.5417324159       -2.8393163352  W2        1002            0.0000000000
      3006      1002  TIP3      H2             23.0474894280      -50.8950024159       -3.9531663352  W2        1002            0.0000000000
      3007      1003  TIP3      OH2            24.4854794280      -50.8659224159      -17.2134263352  W2        1003            0.0000000000
      3008      1003  TIP3      H1             24.3049794280      -51.0208024159      -18.1405963352  W2        1003            0.0000000000
      3009      1003  TIP3      H2             25.4355294280      -50.7580524159      -17.1686363352  W2        1003            0.0000000000
      3010      1004  TIP3      OH2            27.7231894280      -48.7448624159        0.1576936648  W2        1004            0.0000000000
      3011      1004  TIP3      H1             28.6763094280      -48.6609524159        0.1302936648  W2        1004            0.0000000000
      3012      1004  TIP3      H2             27.5626494280      -49.4566824159        0.7771836648  W2        1004            0.0000000000
      3013      1005  TIP3      OH2            33.8753094280      -48.5115024159      -17.7676163352  W2        1005            0.0000000000
      3014      1005  TIP3      H1             33.6017894280      -48.9359524159      -18.5807863352  W2        1005            0.0000000000
      3015      1005  TIP3      H2             33.9147194280      -47.5800524159      -17.9845763352  W2        1005            0.0000000000
      3016      1006  TIP3      OH2            23.0427394280      -53.8613124159       -2.0374763352  W2        1006            0.0000000000
      3017      1006  TIP3      H1             23.1928294280      -54.5901824159       -2.6395063352  W2        1006            0.0000000000
      3018      1006  TIP3      H2             23.0449794280      -53.0841424159       -2.5962563352  W2        1006            0.0000000000
      3019      1007  TIP3      OH2            23.4553094280      -55.4917324159       -4.5447363352  W2        1007            0.0000000000
      3020      1007  TIP3      H1             23.9910594280      -55.0400624159       -5.1968063352  W2        1007            0.0000000000
      3021      1007  TIP3      H2             22.6032694280      -55.5997524159       -4.9673263352  W2        1007            0.0000000000
      3022      1008  TIP3      OH2            25.0371494280      -50.0521124159       -4.3052163352  W2        1008            0.0000000000
      3023      1008  TIP3      H1             25.7876294280      -50.2083624159       -4.8784363352  W2        1008            0.0000000000
      3024      1008  TIP3      H2             24.6979794280      -49.2004524159       -4.5806663352  W2        1008            0.0000000000
      3025      1009  TIP3      OH2            29.4527694280      -52.2369324159        0.7233136648  W2        1009            0.0000000000
      3026      1009  TIP3      H1             29.6448994280      -53.1679924159        0.6117636648  W2        1009            0.0000000000
      3027      1009  TIP3      H2             30.3103994280      -51.8119824159        0.7128536648  W2        1009            0.0000000000
      3028      1010  TIP3      OH2            30.7694894280      -49.4484124159       -1.1994163352  W2        1010            0.0000000000
      3029      1010  TIP3      H1             30.4879894280      -48.7389524159       -1.7770363352  W2        1010            0.0000000000
      3030      1010  TIP3      H2             31.7119194280      -49.5211124159       -1.3502963352  W2        1010            0.0000000000
      3031      1011  TIP3      OH2            21.5213694280      -52.6629624159       -0.1259163352  W2        1011            0.0000000000
      3032      1011  TIP3      H1             20.7542694280      -53.1954824159       -0.3361563352  W2        1011            0.0000000000
      3033      1011  TIP3      H2             22.2002694280      -52.9729224159       -0.7252863352  W2        1011            0.0000000000
      3034      1012  TIP3      OH2            24.2608594280      -58.0351624159       -4.1133763352  W2        1012            0.0000000000
      3035      1012  TIP3      H1             24.1628194280      -57.0888424159       -4.2187563352  W2        1012            0.0000000000
      3036      1012  TIP3      H2             23.5184794280      -58.4077824159       -4.5890263352  W2        1012            0.0000000000
      3037      1013  TIP3      OH2            25.5249094280      -53.7136224159       -0.5495363352  W2        1013            0.0000000000
      3038      1013  TIP3      H1             25.2894494280      -53.9329524159        0.3519536648  W2        1013            0.0000000000
      3039      1013  TIP3      H2             24.7415994280      -53.9205024159       -1.0592863352  W2        1013            0.0000000000
      3040      1014  TIP3      OH2            28.2405694280      -54.5862724159       -1.4741863352  W2        1014            0.0000000000
      3041      1014  TIP3      H1             27.2931094280      -54.5543024159       -1.3418563352  W2        1014            0.0000000000
      3042      1014  TIP3      H2             28.5532394280      -55.2115624159       -0.8203663352  W2        1014            0.0000000000
      3043      1015  TIP3      OH2            29.8747194280      -55.9521624159        0.5310036648  W2        1015            0.0000000000
      3044      1015  TIP3      H1             29.7778994280      -56.9044324159        0.5251936648  W2        1015            0.0000000000
      3045      1015  TIP3      H2             29.5530294280      -55.6834824159        1.3915536648  W2        1015            0.0000000000
      3046      1016  TIP3      OH2            19.7016494280      -54.7425824159       -0.4214463352  W2        1016            0.0000000000
      3047      1016  TIP3      H1             19.9133894280      -55.4489724159       -1.0316963352  W2        1016            0.0000000000
      3048      1016  TIP3      H2             19.5903994280      -55.1799824159        0.4226736648  W2        1016            0.0000000000
      3049      1017  TIP3      OH2            24.4826694280      -58.7414224159       -1.4420963352  W2        1017            0.0000000000
      3050      1017  TIP3      H1             25.1945094280      -59.3812024159       -1.4561863352  W2        1017            0.0000000000
      3051      1017  TIP3      H2             24.3817094280      -58.4745924159       -2.3557863352  W2        1017            0.0000000000
      3052      1018  TIP3      OH2            24.8364194280      -57.0585824159        0.6115336648  W2        1018            0.0000000000
      3053      1018  TIP3      H1             24.7046394280      -57.5342024159       -0.2086163352  W2        1018            0.0000000000
      3054      1018  TIP3      H2             24.2371594280      -56.3142224159        0.5562436648  W2        1018            0.0000000000
      3055      1019  TIP3      OH2            24.3826494280      -40.1755524159      -16.2120663352  W2        1019            0.0000000000
      3056      1019  TIP3      H1             25.3157194280      -40.0176824159      -16.0682263352  W2        1019            0.0000000000
      3057      1019  TIP3      H2             24.1185294280      -39.5002524159      -16.8369163352  W2        1019            0.0000000000
      3058      1020  TIP3      OH2            17.9511394280      -45.5391724159      -16.7292563352  W2        1020            0.0000000000
      3059      1020  TIP3      H1             18.8650594280      -45.4602824159      -16.4558663352  W2        1020            0.0000000000
      3060      1020  TIP3      H2             17.9584494280      -46.2262124159      -17.3956963352  W2        1020            0.0000000000
      3061      1021  TIP3      OH2            16.6001994280      -40.1463224159      -11.6518663352  W2        1021            0.0000000000
      3062      1021  TIP3      H1             15.9529094280      -40.6081524159      -12.1847463352  W2        1021            0.0000000000
      3063      1021  TIP3      H2             16.9546594280      -40.8179924159      -11.0692463352  W2        1021            0.0000000000
      3064      1022  TIP3      OH2            17.4701194280      -42.0656224159       -9.8472463352  W2        1022            0.0000000000
      3065      1022  TIP3      H1             17.1357994280      -42.9458924159       -9.6752263352  W2        1022            0.0000000000
      3066      1022  TIP3      H2             17.6923594280      -41.7201224159       -8.9826863352  W2        1022            0.0000000000
      3067      1023  TIP3      OH2            35.0185994280      -41.2559824159       -6.8667663352  W2        1023            0.0000000000
      3068      1023  TIP3      H1             34.9972694280      -41.0711424159       -5.9278263352  W2        1023            0.0000000000
      3069      1023  TIP3      H2             35.7092194280      -40.6875824159       -7.2076263352  W2        1023            0.0000000000
      3070      1024  TIP3      OH2            34.5818894280      -41.6888724159       -3.9448563352  W2        1024            0.0000000000
      3071      1024  TIP3      H1             34.0947594280      -42.4244624159       -4.3161163352  W2        1024            0.0000000000
      3072      1024  TIP3      H2             35.1311594280      -42.0824824159       -3.2669163352  W2        1024            0.0000000000
      3073      1025  TIP3      OH2            33.0326194280      -45.8990624159        0.6931736648  W2        1025            0.0000000000
      3074      1025  TIP3      H1             32.1667294280      -46.0040924159        1.0874036648  W2        1025            0.0000000000
      3075      1025  TIP3      H2             33.4092094280      -45.1407324159        1.1396436648  W2        1025            0.0000000000
      3076      1026  TIP3      OH2            34.3335894280      -47.6426924159      -13.7925763352  W2        1026            0.0000000000
      3077      1026  TIP3      H1             35.1837294280      -47.2216024159      -13.6654163352  W2        1026            0.0000000000
      3078      1026  TIP3      H2             34.3390994280      -48.3826824159      -13.1854363352  W2        1026            0.0000000000
      3079      1027  TIP3      OH2            34.7281494280      -49.5889524159      -11.9690063352  W2        1027            0.0000000000
      3080      1027  TIP3      H1             34.0016094280      -50.0686924159      -11.5712463352  W2        1027            0.0000000000
      3081      1027  TIP3      H2             35.3094794280      -49.3834824159      -11.2368463352  W2        1027            0.0000000000
      3082      1028  TIP3      OH2            34.4872694280      -46.8042024159       -7.0212463352  W2        1028            0.0000000000
      3083      1028  TIP3      H1             35.3206894280      -47.1822024159       -7.3018863352  W2        1028            0.0000000000
      3084      1028  TIP3      H2             34.5992994280      -45.8610824159       -7.1403363352  W2        1028            0.0000000000
      3085      1029  TIP3      OH2            32.9734994280      -43.9264524159       -4.7144063352  W2        1029            0.0000000000
      3086      1029  TIP3      H1             32.3260294280      -43.6013024159       -4.0888863352  W2        1029            0.0000000000
      3087      1029  TIP3      H2             32.4558994280      -44.3666824159       -5.3885763352  W2        1029            0.0000000000
      3088      1030  TIP3      OH2            34.9964594280      -49.6881024159      -15.5778763352  W2        1030            0.0000000000
      3089      1030  TIP3      H1             34.4745694280      -49.3316924159      -16.2967863352  W2        1030            0.0000000000
      3090      1030  TIP3      H2             34.9633794280      -49.0133224159      -14.8997863352  W2        1030            0.0000000000
      3091      1031  TIP3      OH2            33.3453594280      -52.4485424159      -17.0271663352  W2        1031            0.0000000000
      3092      1031  TIP3      H1             33.4417994280      -51.7818424159      -17.7071963352  W2        1031            0.0000000000
      3093      1031  TIP3      H2             33.2053194280      -53.2639124159      -17.5086163352  W2        1031            0.0000000000
      3094      1032  TIP3      OH2            32.5148294280      -51.0683024159      -11.4061363352  W2        1032            0.0000000000
      3095      1032  TIP3      H1             32.3647094280      -52.0134424159      -11.4263563352  W2        1032            0.0000000000
      3096      1032  TIP3      H2             32.1612794280      -50.7871624159      -10.5622263352  W2        1032            0.0000000000
      3097      1033  TIP3      OH2            17.5500694280      -48.9900824159       -7.3957563352  W2        1033            0.0000000000
      3098      1033  TIP3      H1             17.7343594280      -49.0719124159       -8.3314663352  W2        1033            0.0000000000
      3099      1033  TIP3      H2             18.3993594280      -49.1143824159       -6.9721163352  W2        1033            0.0000000000
      3100      1034  TIP3      OH2            33.3711194280      -49.0979724159       -1.7673063352  W2        1034            0.0000000000
      3101      1034  TIP3      H1             33.9538494280      -49.8327424159       -1.5755863352  W2        1034            0.0000000000
      3102      1034  TIP3      H2             33.9350494280      -48.3259424159       -1.7207263352  W2        1034            0.0000000000
      3103      1035  TIP3      OH2            34.8678294280      -51.1953924159       -1.0827663352  W2        1035            0.0000000000
      3104      1035  TIP3      H1             34.0044994280      -51.5741824159       -1.2482963352  W2        1035            0.0000000000
      3105      1035  TIP3      H2             35.4721994280      -51.9339124159       -1.1571863352  W2        1035            0.0000000000
      3106      1036  TIP3      OH2            32.5927394280      -55.0405624159      -17.9096163352  W2        1036            0.0000000000
      3107      1036  TIP3      H1             33.2033194280      -55.4118824159      -17.2727963352  W2        1036            0.0000000000
      3108      1036  TIP3      H2             31.7558894280      -55.4618724159      -17.7136163352  W2        1036            0.0000000000
      3109      1037  TIP3      OH2            32.2253094280      -53.4857224159      -12.9436263352  W2        1037            0.0000000000
      3110      1037  TIP3      H1             32.5050194280      -54.3926824159      -12.8194563352  W2        1037            0.0000000000
      3111      1037  TIP3      H2             32.9844794280      -53.0515724159      -13.3327063352  W2        1037            0.0000000000
      3112      1038  TIP3      OH2            32.8371394280      -52.9039824159       -7.5077363352  W2        1038            0.0000000000
      3113      1038  TIP3      H1             33.7699394280      -52.6919924159       -7.5421363352  W2        1038            0.0000000000
      3114      1038  TIP3      H2             32.6018894280      -52.8027724159       -6.5854363352  W2        1038            0.0000000000
      3115      1039  TIP3      OH2            32.8663294280      -52.1674524159       -4.7317963352  W2        1039            0.0000000000
      3116      1039  TIP3      H1             32.0234594280      -51.8994124159       -4.3658163352  W2        1039            0.0000000000
      3117      1039  TIP3      H2             33.3087594280      -51.3452624159       -4.9426863352  W2        1039            0.0000000000
      3118      1040  TIP3      OH2            17.1475494280      -53.7195824159       -1.2548763352  W2        1040            0.0000000000
      3119      1040  TIP3      H1             18.0670394280      -53.8417524159       -1.0185663352  W2        1040            0.0000000000
      3120      1040  TIP3      H2             16.6979994280      -54.4696124159       -0.8655263352  W2        1040            0.0000000000
      3121      1041  TIP3      OH2            35.1494894280      -58.1874324159        0.6217036648  W2        1041            0.0000000000
      3122      1041  TIP3      H1             35.4991894280      -58.8410824159        0.0161736648  W2        1041            0.0000000000
      3123      1041  TIP3      H2             35.2964394280      -57.3500224159        0.1819636648  W2        1041            0.0000000000
      3124      1042  TIP3      OH2            32.8387894280      -56.2227924159      -12.8954263352  W2        1042            0.0000000000
      3125      1042  TIP3      H1             33.0212894280      -56.6716424159      -12.0699263352  W2        1042            0.0000000000
      3126      1042  TIP3      H2             32.2390794280      -56.8073524159      -13.3589663352  W2        1042            0.0000000000
      3127      1043  TIP3      OH2            18.3687994280      -55.4074224159       -8.3635863352  W2        1043            0.0000000000
      3128      1043  TIP3      H1             18.8139594280      -56.1991724159       -8.0616163352  W2        1043            0.0000000000
      3129      1043  TIP3      H2             18.8350994280      -54.6909024159       -7.9330263352  W2        1043            0.0000000000
      3130      1044  TIP3      OH2            16.6728294280      -52.4081224159       -7.2945663352  W2        1044            0.0000000000
      3131      1044  TIP3      H1             17.1648094280      -52.6290724159       -8.0853663352  W2        1044            0.0000000000
      3132      1044  TIP3      H2             17.0349194280      -51.5677824159       -7.0136163352  W2        1044            0.0000000000
      3133      1045  TIP3      OH2            34.6692094280      -56.0779724159       -1.0291663352  W2        1045            0.0000000000
      3134      1045  TIP3      H1             33.7517794280      -55.8072624159       -1.0648163352  W2        1045            0.0000000000
      3135      1045  TIP3      H2             34.7921494280      -56.6131324159       -1.8131963352  W2        1045            0.0000000000
      3136      1046  TIP3      OH2            34.7054094280      -56.1549824159      -16.3673963352  W2        1046            0.0000000000
      3137      1046  TIP3      H1             35.1176694280      -56.8764124159      -16.8425963352  W2        1046            0.0000000000
      3138      1046  TIP3      H2             35.3870594280      -55.4855224159      -16.3089663352  W2        1046            0.0000000000
      3139      1047  TIP3      OH2            16.9864794280      -56.1502124159      -13.2403263352  W2        1047            0.0000000000
      3140      1047  TIP3      H1             16.0613194280      -55.9415524159      -13.3697763352  W2        1047            0.0000000000
      3141      1047  TIP3      H2             17.4404694280      -55.6661324159      -13.9300963352  W2        1047            0.0000000000
      3142      1048  TIP3      OH2            31.7571994280      -41.1660424159      -11.2945863352  W2        1048            0.0000000000
      3143      1048  TIP3      H1             32.4094894280      -41.5138324159      -11.9026763352  W2        1048            0.0000000000
      3144      1048  TIP3      H2             32.2675794280      -40.6777224159      -10.6486163352  W2        1048            0.0000000000
      3145      1049  TIP3      OH2            16.9500194280      -57.4123124159       -4.8960763352  W2        1049            0.0000000000
      3146      1049  TIP3      H1             16.2850694280      -57.6582824159       -4.2529863352  W2        1049            0.0000000000
      3147      1049  TIP3      H2             16.5071494280      -56.7902724159       -5.4732763352  W2        1049            0.0000000000
      3148      1050  TIP3      OH2            19.1419494280      -44.2369024159       -0.7514963352  W2        1050            0.0000000000
      3149      1050  TIP3      H1             18.3211994280      -44.0622524159       -1.2120263352  W2        1050            0.0000000000
      3150      1050  TIP3      H2             18.8897294280      -44.3104324159        0.1689436648  W2        1050            0.0000000000
      3151      1051  TIP3      OH2            22.0962394280      -43.2627824159       -4.4930963352  W2        1051            0.0000000000
      3152      1051  TIP3      H1             21.6713494280      -42.4529324159       -4.7756363352  W2        1051            0.0000000000
      3153      1051  TIP3      H2             23.0005194280      -43.1773724159       -4.7951163352  W2        1051            0.0000000000
      3154      1052  TIP3      OH2            26.4073794280      -41.8637824159       -1.5337263352  W2        1052            0.0000000000
      3155      1052  TIP3      H1             26.5921294280      -42.1971724159       -0.6556963352  W2        1052            0.0000000000
      3156      1052  TIP3      H2             27.2538294280      -41.5539224159       -1.8558063352  W2        1052            0.0000000000
      3157      1053  TIP3      OH2            28.7524194280      -40.5778924159       -2.2895863352  W2        1053            0.0000000000
      3158      1053  TIP3      H1             29.4293094280      -41.2106624159       -2.5296663352  W2        1053            0.0000000000
      3159      1053  TIP3      H2             29.0742994280      -40.1768424159       -1.4822563352  W2        1053            0.0000000000
      3160      1054  TIP3      OH2            33.6697994280      -57.9883424159       -3.2100863352  W2        1054            0.0000000000
      3161      1054  TIP3      H1             32.8571494280      -57.6633124159       -3.5976163352  W2        1054            0.0000000000
      3162      1054  TIP3      H2             33.9026494280      -58.7484924159       -3.7431763352  W2        1054            0.0000000000
      3163      1055  TIP3      OH2            19.4979094280      -40.0063924159       -4.4455663352  W2        1055            0.0000000000
      3164      1055  TIP3      H1             18.7775494280      -39.5662924159       -4.8967963352  W2        1055            0.0000000000
      3165      1055  TIP3      H2             19.1323094280      -40.2569224159       -3.5971663352  W2        1055            0.0000000000
      3166      1056  TIP3      OH2            21.9651694280      -40.4060024159       -5.4158463352  W2        1056            0.0000000000
      3167      1056  TIP3      H1             21.1003894280      -40.3341524159       -5.0118363352  W2        1056            0.0000000000
      3168      1056  TIP3      H2             21.9100694280      -39.8592724159       -6.1995963352  W2        1056            0.0000000000
      3169      1057  TIP3      OH2            26.6757294280      -40.5181124159       -6.2402463352  W2        1057            0.0000000000
      3170      1057  TIP3      H1             26.2191294280      -39.9891424159       -6.8944063352  W2        1057            0.0000000000
      3171      1057  TIP3      H2             26.8385294280      -39.9149724159       -5.5150163352  W2        1057            0.0000000000
      3172      1058  TIP3      OH2            29.0033594280      -41.6401524159       -5.2952163352  W2        1058            0.0000000000
      3173      1058  TIP3      H1             28.0987294280      -41.4751324159       -5.5610063352  W2        1058            0.0000000000
      3174      1058  TIP3      H2             29.4322194280      -40.7869324159       -5.3608763352  W2        1058            0.0000000000
      3175      1059  TIP3      OH2            31.6075494280      -40.0702424159       -5.0004363352  W2        1059            0.0000000000
      3176      1059  TIP3      H1             31.4257494280      -39.1543524159       -5.2109463352  W2        1059            0.0000000000
      3177      1059  TIP3      H2             31.7843294280      -40.4805324159       -5.8469763352  W2        1059            0.0000000000
      3178      1060  TIP3      OH2            18.9127194280      -41.3831424159       -7.5353863352  W2        1060            0.0000000000
      3179      1060  TIP3      H1             18.8943194280      -41.8086324159       -6.6781563352  W2        1060            0.0000000000
      3180      1060  TIP3      H2             19.7175094280      -41.7016424159       -7.9441663352  W2        1060            0.0000000000
      3181      1061  TIP3      OH2            21.0540294280      -42.6732724159       -8.8803963352  W2        1061            0.0000000000
      3182      1061  TIP3      H1             20.8350994280      -43.5895324159       -8.7107963352  W2        1061            0.0000000000
      3183      1061  TIP3      H2             21.8782494280      -42.5332324159       -8.4142563352  W2        1061            0.0000000000
      3184      1062  TIP3      OH2            23.5912794280      -42.2033424159       -8.0315963352  W2        1062            0.0000000000
      3185      1062  TIP3      H1             23.8038494280      -43.0914424159       -8.3185063352  W2        1062            0.0000000000
      3186      1062  TIP3      H2             23.6557894280      -42.2375724159       -7.0771963352  W2        1062            0.0000000000
      3187      1063  TIP3      OH2            27.0996494280      -56.5392824159       -8.8872663352  W2        1063            0.0000000000
      3188      1063  TIP3      H1             26.4253294280      -57.1687224159       -8.6316863352  W2        1063            0.0000000000
      3189      1063  TIP3      H2             27.6635694280      -57.0233924159       -9.4904763352  W2        1063            0.0000000000
      3190      1064  TIP3      OH2            32.2423694280      -58.4318824159       -8.7745563352  W2        1064            0.0000000000
      3191      1064  TIP3      H1             32.8461294280      -57.8843424159       -9.2764563352  W2        1064            0.0000000000
      3192      1064  TIP3      H2             31.3725694280      -58.1128424159       -9.0151463352  W2        1064            0.0000000000
      3193      1065  TIP3      OH2            33.9694094280      -57.2930124159      -10.4414663352  W2        1065            0.0000000000
      3194      1065  TIP3      H1             34.5811594280      -57.8074424159      -10.9681063352  W2        1065            0.0000000000
      3195      1065  TIP3      H2             34.3517494280      -56.4158024159      -10.4180263352  W2        1065            0.0000000000
      3196      1066  TIP3      OH2            19.4263994280      -57.9052524159      -11.0652763352  W2        1066            0.0000000000
      3197      1066  TIP3      H1             18.6493794280      -58.1397624159      -11.5726863352  W2        1066            0.0000000000
      3198      1066  TIP3      H2             19.9567594280      -58.7020424159      -11.0564763352  W2        1066            0.0000000000
      3199      1067  TIP3      OH2            18.2627394280      -58.1074424159      -15.2616663352  W2        1067            0.0000000000
      3200      1067  TIP3      H1             18.7018094280      -57.4963924159      -15.8533163352  W2        1067            0.0000000000
      3201      1067  TIP3      H2             17.6289794280      -57.5690324159      -14.7876663352  W2        1067            0.0000000000
      3202      1068  TIP3      OH2            24.0056594280      -57.9785424159      -11.2519663352  W2        1068            0.0000000000
      3203      1068  TIP3      H1             24.8799994280      -57.5901124159      -11.2815363352  W2        1068            0.0000000000
      3204      1068  TIP3      H2             23.8697394280      -58.1937624159      -10.3292463352  W2        1068            0.0000000000
      3205      1069  TIP3      OH2            29.5624994280      -57.9485624159       -9.6027963352  W2        1069            0.0000000000
      3206      1069  TIP3      H1             29.6386594280      -57.8534024159      -10.5521963352  W2        1069            0.0000000000
      3207      1069  TIP3      H2             29.2874194280      -58.8562724159       -9.4738863352  W2        1069            0.0000000000
      3208      1070  TIP3      OH2            30.9157594280      -57.9227824159      -13.9102963352  W2        1070            0.0000000000
      3209      1070  TIP3      H1             30.2128694280      -57.3078624159      -14.1201563352  W2        1070            0.0000000000
      3210      1070  TIP3      H2             30.4708994280      -58.7601124159      -13.7792063352  W2        1070            0.0000000000
      3211      1071  TIP3      OH2            18.1636894280      -42.1592224159      -14.3641563352  W2        1071            0.0000000000
      3212      1071  TIP3      H1             17.4786794280      -42.1973324159      -15.0316463352  W2        1071            0.0000000000
      3213      1071  TIP3      H2             18.1674094280      -41.2464624159      -14.0759463352  W2        1071            0.0000000000
      3214      1072  TIP3      OH2            20.1236494280      -56.1912924159      -16.8192563352  W2        1072            0.0000000000
      3215      1072  TIP3      H1             20.6149894280      -56.8210524159      -17.3467063352  W2        1072            0.0000000000
      3216      1072  TIP3      H2             20.7472794280      -55.8953524159      -16.1561363352  W2        1072            0.0000000000
      3217      1073  TIP3      OH2            25.1496594280      -55.8981424159      -14.3622063352  W2        1073            0.0000000000
      3218      1073  TIP3      H1             25.3277894280      -56.5448224159      -13.6793463352  W2        1073            0.0000000000
      3219      1073  TIP3      H2             25.0962794280      -55.0643724159      -13.8950963352  W2        1073            0.0000000000
      3220      1074  TIP3      OH2            27.0280394280      -40.9497324159      -15.9665363352  W2        1074            0.0000000000
      3221      1074  TIP3      H1             27.8940594280      -40.5829924159      -16.1447163352  W2        1074            0.0000000000
      3222      1074  TIP3      H2             26.7813194280      -41.3889324159      -16.7804563352  W2        1074            0.0000000000
      3223      1075  TIP3      OH2            33.7369994280      -41.3867024159      -13.2874263352  W2        1075            0.0000000000
      3224      1075  TIP3      H1             33.5427094280      -42.1344924159      -13.8524663352  W2        1075            0.0000000000
      3225      1075  TIP3      H2             33.6980094280      -40.6286924159      -13.8706363352  W2        1075            0.0000000000
      3226      1076  TIP3      OH2            19.3841994280      -57.3910624159       -1.5476563352  W2        1076            0.0000000000
      3227      1076  TIP3      H1             19.0180194280      -58.1568024159       -1.1051863352  W2        1076            0.0000000000
      3228      1076  TIP3      H2             20.2970494280      -57.3620424159       -1.2611463352  W2        1076            0.0000000000
      3229      1077  TIP3      OH2            21.3572794280      -58.0406224159       -0.0119463352  W2        1077            0.0000000000
      3230      1077  TIP3      H1             22.2556394280      -58.3146024159       -0.1966063352  W2        1077            0.0000000000
      3231      1077  TIP3      H2             20.9705894280      -58.7830224159        0.4523136648  W2        1077            0.0000000000
      3232      1078  TIP3      OH2            19.9818094280      -41.2391424159      -17.3389463352  W2        1078            0.0000000000
      3233      1078  TIP3      H1             19.7142694280      -40.9528524159      -16.4656363352  W2        1078            0.0000000000
      3234      1078  TIP3      H2             20.7530694280      -41.7852224159      -17.1866963352  W2        1078            0.0000000000
      3235      1079  TIP3      OH2            29.7785094280      -58.7080924159        0.1703336648  W2        1079            0.0000000000
      3236      1079  TIP3      H1             29.8552294280      -59.1340224159        1.0241036648  W2        1079            0.0000000000
      3237      1079  TIP3      H2             30.6721694280      -58.6946224159       -0.1723163352  W2        1079            0.0000000000
      3238      1080  TIP3      OH2            32.9546194280      -42.6354624159       -1.1372463352  W2        1080            0.0000000000
      3239      1080  TIP3      H1             32.1728094280      -42.8216624159       -1.6571863352  W2        1080            0.0000000000
      3240      1080  TIP3      H2             32.8826094280      -41.7060324159       -0.9199963352  W2        1080            0.0000000000
      3241      1081  TIP3      OH2            47.3606594280      -48.7490224159      -11.1065263352  W2        1081            0.0000000000
      3242      1081  TIP3      H1             47.4497694280      -47.8052024159      -11.2388163352  W2        1081            0.0000000000
      3243      1081  TIP3      H2             46.7224194280      -49.0243824159      -11.7645863352  W2        1081            0.0000000000
      3244      1082  TIP3      OH2            46.2937894280      -49.4939524159       -7.6877063352  W2        1082            0.0000000000
      3245      1082  TIP3      H1             46.2555394280      -50.1403224159       -6.9827463352  W2        1082            0.0000000000
      3246      1082  TIP3      H2             45.9714394280      -49.9605124159       -8.4588363352  W2        1082            0.0000000000
      3247      1083  TIP3      OH2            38.6622894280      -49.8797424159       -6.0947163352  W2        1083            0.0000000000
      3248      1083  TIP3      H1             38.7034994280      -50.5054124159       -5.3714763352  W2        1083            0.0000000000
      3249      1083  TIP3      H2             39.3650594280      -49.2558824159       -5.9126763352  W2        1083            0.0000000000
      3250      1084  TIP3      OH2            49.9998094280      -46.5549124159       -9.3861963352  W2        1084            0.0000000000
      3251      1084  TIP3      H1             49.5590794280      -47.2753124159       -8.9356363352  W2        1084            0.0000000000
      3252      1084  TIP3      H2             49.9867794280      -45.8341924159       -8.7564263352  W2        1084            0.0000000000
      3253      1085  TIP3      OH2            39.5855994280      -45.4298524159       -7.5598063352  W2        1085            0.0000000000
      3254      1085  TIP3      H1             39.2161194280      -46.2318024159       -7.9293763352  W2        1085            0.0000000000
      3255      1085  TIP3      H2             40.5267094280      -45.5983624159       -7.5134663352  W2        1085            0.0000000000
      3256      1086  TIP3      OH2            36.1956494280      -51.7695924159      -12.1669263352  W2        1086            0.0000000000
      3257      1086  TIP3      H1             35.7479894280      -50.9237224159      -12.1852763352  W2        1086            0.0000000000
      3258      1086  TIP3      H2             35.6347694280      -52.3491724159      -12.6824163352  W2        1086            0.0000000000
      3259      1087  TIP3      OH2            36.9062594280      -49.6076324159      -10.0411263352  W2        1087            0.0000000000
      3260      1087  TIP3      H1             37.1196094280      -50.3774724159       -9.5138263352  W2        1087            0.0000000000
      3261      1087  TIP3      H2             37.6440194280      -49.5179624159      -10.6443663352  W2        1087            0.0000000000
      3262      1088  TIP3      OH2            47.1113594280      -41.4507424159       -9.1741563352  W2        1088            0.0000000000
      3263      1088  TIP3      H1             47.7309994280      -42.1272724159       -9.4472363352  W2        1088            0.0000000000
      3264      1088  TIP3      H2             46.9030994280      -41.6686624159       -8.2656663352  W2        1088            0.0000000000
      3265      1089  TIP3      OH2            44.6832294280      -47.0618124159       -7.2816063352  W2        1089            0.0000000000
      3266      1089  TIP3      H1             44.9870194280      -47.7476724159       -7.8761963352  W2        1089            0.0000000000
      3267      1089  TIP3      H2             45.4046294280      -46.9429424159       -6.6638063352  W2        1089            0.0000000000
      3268      1090  TIP3      OH2            53.3462094280      -55.4602824159       -6.4209863352  W2        1090            0.0000000000
      3269      1090  TIP3      H1             53.3954294280      -54.8501624159       -5.6850763352  W2        1090            0.0000000000
      3270      1090  TIP3      H2             53.7717194280      -54.9991924159       -7.1438763352  W2        1090            0.0000000000
      3271      1091  TIP3      OH2            47.8239294280      -52.6675724159       -6.9541263352  W2        1091            0.0000000000
      3272      1091  TIP3      H1             47.9665194280      -53.6138724159       -6.9339663352  W2        1091            0.0000000000
      3273      1091  TIP3      H2             47.7178294280      -52.4605924159       -7.8826363352  W2        1091            0.0000000000
      3274      1092  TIP3      OH2            40.9787594280      -54.5659324159       -9.6816463352  W2        1092            0.0000000000
      3275      1092  TIP3      H1             41.0218694280      -53.7060824159      -10.1000163352  W2        1092            0.0000000000
      3276      1092  TIP3      H2             40.5211694280      -55.1184624159      -10.3153263352  W2        1092            0.0000000000
      3277      1093  TIP3      OH2            48.7010294280      -54.4353724159      -11.2808163352  W2        1093            0.0000000000
      3278      1093  TIP3      H1             49.3474594280      -54.7640524159      -10.6560563352  W2        1093            0.0000000000
      3279      1093  TIP3      H2             49.2109694280      -53.9174724159      -11.9036763352  W2        1093            0.0000000000
      3280      1094  TIP3      OH2            37.5989094280      -52.1693524159       -8.9195063352  W2        1094            0.0000000000
      3281      1094  TIP3      H1             38.2525694280      -52.7191824159       -8.4874963352  W2        1094            0.0000000000
      3282      1094  TIP3      H2             37.6228394280      -52.4434524159       -9.8363063352  W2        1094            0.0000000000
      3283      1095  TIP3      OH2            42.7553594280      -50.6192224159       -9.7043563352  W2        1095            0.0000000000
      3284      1095  TIP3      H1             43.3714594280      -51.1456824159       -9.1949563352  W2        1095            0.0000000000
      3285      1095  TIP3      H2             42.1692394280      -51.2593524159      -10.1079963352  W2        1095            0.0000000000
      3286      1096  TIP3      OH2            53.7376694280      -53.9823624159       -4.1850063352  W2        1096            0.0000000000
      3287      1096  TIP3      H1             53.0491294280      -53.3242924159       -4.2803463352  W2        1096            0.0000000000
      3288      1096  TIP3      H2             53.7531294280      -54.1795724159       -3.2484663352  W2        1096            0.0000000000
      3289      1097  TIP3      OH2            39.7889494280      -55.6480924159       -5.6075663352  W2        1097            0.0000000000
      3290      1097  TIP3      H1             39.5701194280      -55.1180324159       -6.3739663352  W2        1097            0.0000000000
      3291      1097  TIP3      H2             39.1210394280      -55.4215424159       -4.9604263352  W2        1097            0.0000000000
      3292      1098  TIP3      OH2            47.1579294280      -46.1479824159      -12.0636563352  W2        1098            0.0000000000
      3293      1098  TIP3      H1             46.8624394280      -46.4707524159      -12.9149663352  W2        1098            0.0000000000
      3294      1098  TIP3      H2             46.8337094280      -45.2483124159      -12.0223963352  W2        1098            0.0000000000
      3295      1099  TIP3      OH2            42.3580894280      -47.9725224159       -5.3201963352  W2        1099            0.0000000000
      3296      1099  TIP3      H1             41.6179994280      -47.3743724159       -5.2166763352  W2        1099            0.0000000000
      3297      1099  TIP3      H2             43.0720394280      -47.4185624159       -5.6358363352  W2        1099            0.0000000000
      3298      1100  TIP3      OH2            50.4648694280      -55.1444424159       -9.3002263352  W2        1100            0.0000000000
      3299      1100  TIP3      H1             50.2496694280      -55.9101024159       -8.7676263352  W2        1100            0.0000000000
      3300      1100  TIP3      H2             51.1206094280      -54.6719824159       -8.7873763352  W2        1100            0.0000000000
      3301      1101  TIP3      OH2            39.3826794280      -53.7559124159       -7.6553463352  W2        1101            0.0000000000
      3302      1101  TIP3      H1             39.9963094280      -53.1231524159       -7.2821063352  W2        1101            0.0000000000
      3303      1101  TIP3      H2             39.8947494280      -54.2284124159       -8.3116563352  W2        1101            0.0000000000
      3304      1102  TIP3      OH2            40.7655194280      -46.0082224159       -4.5330463352  W2        1102            0.0000000000
      3305      1102  TIP3      H1             40.7602794280      -45.1288724159       -4.9111163352  W2        1102            0.0000000000
      3306      1102  TIP3      H2             39.9119294280      -46.0918124159       -4.1080563352  W2        1102            0.0000000000
      3307      1103  TIP3      OH2            36.8866094280      -46.3374324159      -13.7511163352  W2        1103            0.0000000000
      3308      1103  TIP3      H1             36.6146994280      -46.1083324159      -14.6398263352  W2        1103            0.0000000000
      3309      1103  TIP3      H2             36.9321794280      -45.4995524159      -13.2905863352  W2        1103            0.0000000000
      3310      1104  TIP3      OH2            50.5115794280      -44.7158424159       -7.0382663352  W2        1104            0.0000000000
      3311      1104  TIP3      H1             49.5699494280      -44.6574524159       -6.8765763352  W2        1104            0.0000000000
      3312      1104  TIP3      H2             50.7881894280      -43.8097924159       -7.1752963352  W2        1104            0.0000000000
      3313      1105  TIP3      OH2            50.8122794280      -56.4293124159       -5.6208763352  W2        1105            0.0000000000
      3314      1105  TIP3      H1             50.0761994280      -55.8186024159       -5.6587463352  W2        1105            0.0000000000
      3315      1105  TIP3      H2             51.4956794280      -56.0144124159       -6.1472363352  W2        1105            0.0000000000
      3316      1106  TIP3      OH2            43.8154194280      -58.3425824159       -8.1550763352  W2        1106            0.0000000000
      3317      1106  TIP3      H1             43.6978394280      -59.2909824159       -8.2092463352  W2        1106            0.0000000000
      3318      1106  TIP3      H2             42.9604294280      -58.0099724159       -7.8819663352  W2        1106            0.0000000000
      3319      1107  TIP3      OH2            48.7636994280      -42.9344924159      -10.4131063352  W2        1107            0.0000000000
      3320      1107  TIP3      H1             49.1889294280      -43.6417024159      -10.8981463352  W2        1107            0.0000000000
      3321      1107  TIP3      H2             49.0806994280      -42.1332224159      -10.8298863352  W2        1107            0.0000000000
      3322      1108  TIP3      OH2            49.9233494280      -45.0336424159      -11.9044463352  W2        1108            0.0000000000
      3323      1108  TIP3      H1             49.6658294280      -45.7236324159      -12.5158563352  W2        1108            0.0000000000
      3324      1108  TIP3      H2             49.9944294280      -45.4765224159      -11.0588563352  W2        1108            0.0000000000
      3325      1109  TIP3      OH2            51.6093694280      -46.4669724159       -3.4270963352  W2        1109            0.0000000000
      3326      1109  TIP3      H1             51.7489994280      -47.0587224159       -4.1663963352  W2        1109            0.0000000000
      3327      1109  TIP3      H2             51.7766494280      -45.5943824159       -3.7832163352  W2        1109            0.0000000000
      3328      1110  TIP3      OH2            46.0819094280      -49.5050224159      -13.6544963352  W2        1110            0.0000000000
      3329      1110  TIP3      H1             45.3704594280      -48.9700524159      -14.0064463352  W2        1110            0.0000000000
      3330      1110  TIP3      H2             46.7728694280      -49.4498124159      -14.3146063352  W2        1110            0.0000000000
      3331      1111  TIP3      OH2            46.1358294280      -51.0475924159      -16.6159963352  W2        1111            0.0000000000
      3332      1111  TIP3      H1             46.8368194280      -51.0249024159      -15.9645963352  W2        1111            0.0000000000
      3333      1111  TIP3      H2             46.4381194280      -51.6756224159      -17.2720663352  W2        1111            0.0000000000
      3334      1112  TIP3      OH2            53.4512994280      -50.1271724159       -5.3610563352  W2        1112            0.0000000000
      3335      1112  TIP3      H1             52.7987094280      -49.4326124159       -5.2719663352  W2        1112            0.0000000000
      3336      1112  TIP3      H2             53.9163294280      -49.9170824159       -6.1708963352  W2        1112            0.0000000000
      3337      1113  TIP3      OH2            49.4876794280      -49.2956924159      -12.7029063352  W2        1113            0.0000000000
      3338      1113  TIP3      H1             48.7557794280      -49.0673224159      -12.1298463352  W2        1113            0.0000000000
      3339      1113  TIP3      H2             49.9348994280      -50.0094224159      -12.2481563352  W2        1113            0.0000000000
      3340      1114  TIP3      OH2            49.3850294280      -51.1214324159       -3.6352063352  W2        1114            0.0000000000
      3341      1114  TIP3      H1             49.4649394280      -50.3579924159       -3.0633563352  W2        1114            0.0000000000
      3342      1114  TIP3      H2             48.7837994280      -50.8421924159       -4.3256963352  W2        1114            0.0000000000
      3343      1115  TIP3      OH2            41.1330494280      -48.6650724159      -10.8204063352  W2        1115            0.0000000000
      3344      1115  TIP3      H1             40.8025694280      -49.0357324159      -11.6387063352  W2        1115            0.0000000000
      3345      1115  TIP3      H2             41.7214594280      -49.3356724159      -10.4735763352  W2        1115            0.0000000000
      3346      1116  TIP3      OH2            42.4997994280      -45.2370124159       -8.1391863352  W2        1116            0.0000000000
      3347      1116  TIP3      H1             42.4049294280      -45.8157024159       -8.8957263352  W2        1116            0.0000000000
      3348      1116  TIP3      H2             43.2291594280      -45.6084424159       -7.6429063352  W2        1116            0.0000000000
      3349      1117  TIP3      OH2            41.4995994280      -49.8965124159       -7.1869063352  W2        1117            0.0000000000
      3350      1117  TIP3      H1             42.0648494280      -49.7750924159       -7.9497863352  W2        1117            0.0000000000
      3351      1117  TIP3      H2             41.8184894280      -49.2590124159       -6.5480563352  W2        1117            0.0000000000
      3352      1118  TIP3      OH2            47.8088194280      -44.3933224159       -6.4528563352  W2        1118            0.0000000000
      3353      1118  TIP3      H1             47.5684794280      -43.7310124159       -5.8049363352  W2        1118            0.0000000000
      3354      1118  TIP3      H2             47.6106394280      -45.2278024159       -6.0278963352  W2        1118            0.0000000000
      3355      1119  TIP3      OH2            42.3796694280      -45.4972424159       -2.4697163352  W2        1119            0.0000000000
      3356      1119  TIP3      H1             42.0684194280      -44.7149224159       -2.0143963352  W2        1119            0.0000000000
      3357      1119  TIP3      H2             41.7296894280      -45.6503324159       -3.1555163352  W2        1119            0.0000000000
      3358      1120  TIP3      OH2            48.3586294280      -50.1334024159      -15.0177863352  W2        1120            0.0000000000
      3359      1120  TIP3      H1             48.9381794280      -49.9833724159      -14.2708963352  W2        1120            0.0000000000
      3360      1120  TIP3      H2             48.7726294280      -49.6626624159      -15.7411463352  W2        1120            0.0000000000
      3361      1121  TIP3      OH2            39.2996594280      -49.2991324159       -3.2411463352  W2        1121            0.0000000000
      3362      1121  TIP3      H1             39.3699794280      -48.6484524159       -2.5426463352  W2        1121            0.0000000000
      3363      1121  TIP3      H2             38.4088794280      -49.1963824159       -3.5760563352  W2        1121            0.0000000000
      3364      1122  TIP3      OH2            46.0851194280      -43.3965524159      -11.5824763352  W2        1122            0.0000000000
      3365      1122  TIP3      H1             46.5588794280      -43.1009224159      -10.8050563352  W2        1122            0.0000000000
      3366      1122  TIP3      H2             45.5220494280      -42.6583924159      -11.8155163352  W2        1122            0.0000000000
      3367      1123  TIP3      OH2            40.6192594280      -43.4257424159       -1.7063363352  W2        1123            0.0000000000
      3368      1123  TIP3      H1             40.6267894280      -43.5617724159       -2.6537863352  W2        1123            0.0000000000
      3369      1123  TIP3      H2             39.7032994280      -43.5429324159       -1.4543363352  W2        1123            0.0000000000
      3370      1124  TIP3      OH2            52.0574694280      -58.3833624159      -15.2048163352  W2        1124            0.0000000000
      3371      1124  TIP3      H1             51.1575394280      -58.2444624159      -14.9097563352  W2        1124            0.0000000000
      3372      1124  TIP3      H2             52.3093094280      -57.5519024159      -15.6066463352  W2        1124            0.0000000000
      3373      1125  TIP3      OH2            40.1233194280      -49.5956424159      -13.2311263352  W2        1125            0.0000000000
      3374      1125  TIP3      H1             39.8314494280      -48.8274724159      -13.7219963352  W2        1125            0.0000000000
      3375      1125  TIP3      H2             39.4488394280      -50.2550224159      -13.3939863352  W2        1125            0.0000000000
      3376      1126  TIP3      OH2            53.2466094280      -44.0171224159      -16.8284263352  W2        1126            0.0000000000
      3377      1126  TIP3      H1             53.3199594280      -43.0781024159      -16.6578963352  W2        1126            0.0000000000
      3378      1126  TIP3      H2             54.1521194280      -44.3222624159      -16.8846963352  W2        1126            0.0000000000
      3379      1127  TIP3      OH2            36.2163294280      -47.2327224159       -4.4161463352  W2        1127            0.0000000000
      3380      1127  TIP3      H1             35.7151694280      -47.2607824159       -5.2311763352  W2        1127            0.0000000000
      3381      1127  TIP3      H2             36.2216994280      -48.1384024159       -4.1064163352  W2        1127            0.0000000000
      3382      1128  TIP3      OH2            35.9665994280      -44.4523424159       -7.5321263352  W2        1128            0.0000000000
      3383      1128  TIP3      H1             36.9126594280      -44.5966424159       -7.5511763352  W2        1128            0.0000000000
      3384      1128  TIP3      H2             35.8542294280      -43.6680624159       -6.9950063352  W2        1128            0.0000000000
      3385      1129  TIP3      OH2            54.1644494280      -43.7863724159       -1.8497563352  W2        1129            0.0000000000
      3386      1129  TIP3      H1             54.1151294280      -44.7415624159       -1.8869963352  W2        1129            0.0000000000
      3387      1129  TIP3      H2             53.3376794280      -43.5188424159       -1.4483763352  W2        1129            0.0000000000
      3388      1130  TIP3      OH2            45.1428494280      -44.2124524159       -2.9736163352  W2        1130            0.0000000000
      3389      1130  TIP3      H1             45.2303094280      -43.3859924159       -2.4987063352  W2        1130            0.0000000000
      3390      1130  TIP3      H2             44.2793594280      -44.5420724159       -2.7246863352  W2        1130            0.0000000000
      3391      1131  TIP3      OH2            45.5574294280      -40.4400824159      -13.1675563352  W2        1131            0.0000000000
      3392      1131  TIP3      H1             45.4820294280      -40.5613624159      -14.1140363352  W2        1131            0.0000000000
      3393      1131  TIP3      H2             45.5902994280      -39.4908124159      -13.0490963352  W2        1131            0.0000000000
      3394      1132  TIP3      OH2            39.2108094280      -41.6513824159      -11.3866563352  W2        1132            0.0000000000
      3395      1132  TIP3      H1             39.3628494280      -41.9993424159      -10.5080063352  W2        1132            0.0000000000
      3396      1132  TIP3      H2             38.3598494280      -42.0076524159      -11.6419363352  W2        1132            0.0000000000
      3397      1133  TIP3      OH2            48.6590294280      -41.2860624159      -16.1653163352  W2        1133            0.0000000000
      3398      1133  TIP3      H1             49.0338694280      -42.0304524159      -16.6360563352  W2        1133            0.0000000000
      3399      1133  TIP3      H2             48.6633994280      -41.5560024159      -15.2469863352  W2        1133            0.0000000000
      3400      1134  TIP3      OH2            48.3278394280      -41.3603524159      -13.4160963352  W2        1134            0.0000000000
      3401      1134  TIP3      H1             47.3928194280      -41.2601624159      -13.2373963352  W2        1134            0.0000000000
      3402      1134  TIP3      H2             48.6080294280      -42.0697524159      -12.8377763352  W2        1134            0.0000000000
      3403      1135  TIP3      OH2            51.3164294280      -52.2931224159       -1.3695363352  W2        1135            0.0000000000
      3404      1135  TIP3      H1             50.9091094280      -51.8125624159       -2.0902063352  W2        1135            0.0000000000
      3405      1135  TIP3      H2             51.3569994280      -53.1985224159       -1.6774563352  W2        1135            0.0000000000
      3406      1136  TIP3      OH2            38.4653794280      -45.9091824159       -3.3728663352  W2        1136            0.0000000000
      3407      1136  TIP3      H1             38.6815094280      -46.2706224159       -2.5132863352  W2        1136            0.0000000000
      3408      1136  TIP3      H2             37.6098494280      -46.2838024159       -3.5825163352  W2        1136            0.0000000000
      3409      1137  TIP3      OH2            41.0841794280      -57.4391324159       -7.3774463352  W2        1137            0.0000000000
      3410      1137  TIP3      H1             40.2225494280      -57.5263124159       -7.7851563352  W2        1137            0.0000000000
      3411      1137  TIP3      H2             41.0617494280      -56.5831224159       -6.9496863352  W2        1137            0.0000000000
      3412      1138  TIP3      OH2            45.7469594280      -57.7170924159       -4.0027463352  W2        1138            0.0000000000
      3413      1138  TIP3      H1             46.1672694280      -58.1323824159       -3.2496863352  W2        1138            0.0000000000
      3414      1138  TIP3      H2             44.8139194280      -57.8957624159       -3.8855463352  W2        1138            0.0000000000
      3415      1139  TIP3      OH2            49.0734494280      -53.9615724159       -3.1492963352  W2        1139            0.0000000000
      3416      1139  TIP3      H1             48.5593994280      -54.0873524159       -2.3516963352  W2        1139            0.0000000000
      3417      1139  TIP3      H2             48.9179194280      -53.0492624159       -3.3936763352  W2        1139            0.0000000000
      3418      1140  TIP3      OH2            49.8359394280      -49.1005724159      -17.3879963352  W2        1140            0.0000000000
      3419      1140  TIP3      H1             49.8780194280      -49.3231824159      -18.3179963352  W2        1140            0.0000000000
      3420      1140  TIP3      H2             50.6851494280      -48.7018624159      -17.1980063352  W2        1140            0.0000000000
      3421      1141  TIP3      OH2            45.4086894280      -55.2247524159      -16.7176663352  W2        1141            0.0000000000
      3422      1141  TIP3      H1             45.1551694280      -55.2055924159      -15.7948563352  W2        1141            0.0000000000
      3423      1141  TIP3      H2             45.1518994280      -56.0962124159      -17.0190463352  W2        1141            0.0000000000
      3424      1142  TIP3      OH2            41.1751894280      -52.4736824159       -6.2824263352  W2        1142            0.0000000000
      3425      1142  TIP3      H1             40.5333994280      -52.5139524159       -5.5734163352  W2        1142            0.0000000000
      3426      1142  TIP3      H2             41.2123894280      -51.5472124159       -6.5201263352  W2        1142            0.0000000000
      3427      1143  TIP3      OH2            41.1720994280      -52.2526724159      -11.3704263352  W2        1143            0.0000000000
      3428      1143  TIP3      H1             40.2793894280      -52.5930624159      -11.4290463352  W2        1143            0.0000000000
      3429      1143  TIP3      H2             41.6227594280      -52.6295824159      -12.1261063352  W2        1143            0.0000000000
      3430      1144  TIP3      OH2            46.7076494280      -51.8366424159      -12.5533463352  W2        1144            0.0000000000
      3431      1144  TIP3      H1             46.2986794280      -51.0217824159      -12.8448663352  W2        1144            0.0000000000
      3432      1144  TIP3      H2             47.4282694280      -51.9766324159      -13.1676363352  W2        1144            0.0000000000
      3433      1145  TIP3      OH2            45.8098094280      -51.6610024159       -1.0652763352  W2        1145            0.0000000000
      3434      1145  TIP3      H1             45.2471894280      -52.3658424159       -0.7444963352  W2        1145            0.0000000000
      3435      1145  TIP3      H2             46.6361494280      -51.7818124159       -0.5975163352  W2        1145            0.0000000000
      3436      1146  TIP3      OH2            47.7124194280      -52.3906024159       -9.7393763352  W2        1146            0.0000000000
      3437      1146  TIP3      H1             47.5168694280      -51.7849224159      -10.4543163352  W2        1146            0.0000000000
      3438      1146  TIP3      H2             47.8936794280      -53.2240824159      -10.1737463352  W2        1146            0.0000000000
      3439      1147  TIP3      OH2            38.9252394280      -52.1533324159       -4.4152263352  W2        1147            0.0000000000
      3440      1147  TIP3      H1             38.8871794280      -51.7531724159       -3.5465163352  W2        1147            0.0000000000
      3441      1147  TIP3      H2             38.4343494280      -52.9700924159       -4.3249363352  W2        1147            0.0000000000
      3442      1148  TIP3      OH2            42.2909794280      -54.7791024159      -17.6166263352  W2        1148            0.0000000000
      3443      1148  TIP3      H1             41.8600494280      -55.2240924159      -16.8868863352  W2        1148            0.0000000000
      3444      1148  TIP3      H2             41.5728494280      -54.4074724159      -18.1288763352  W2        1148            0.0000000000
      3445      1149  TIP3      OH2            35.5333194280      -55.0371524159      -10.5647563352  W2        1149            0.0000000000
      3446      1149  TIP3      H1             36.1640894280      -55.0659424159       -9.8453663352  W2        1149            0.0000000000
      3447      1149  TIP3      H2             35.9827494280      -55.4622824159      -11.2951663352  W2        1149            0.0000000000
      3448      1150  TIP3      OH2            36.8075294280      -54.2909524159      -15.1407163352  W2        1150            0.0000000000
      3449      1150  TIP3      H1             37.2816994280      -53.6999624159      -15.7256263352  W2        1150            0.0000000000
      3450      1150  TIP3      H2             36.0901694280      -53.7606624159      -14.7937063352  W2        1150            0.0000000000
      3451      1151  TIP3      OH2            46.9763394280      -50.7524724159       -5.0681363352  W2        1151            0.0000000000
      3452      1151  TIP3      H1             47.2998194280      -51.3835024159       -5.7110863352  W2        1151            0.0000000000
      3453      1151  TIP3      H2             46.5362694280      -51.2872524159       -4.4073963352  W2        1151            0.0000000000
      3454      1152  TIP3      OH2            43.7536294280      -54.8249224159      -10.2840163352  W2        1152            0.0000000000
      3455      1152  TIP3      H1             42.8427394280      -54.7682424159       -9.9954163352  W2        1152            0.0000000000
      3456      1152  TIP3      H2             44.2589194280      -54.8853724159       -9.4732963352  W2        1152            0.0000000000
      3457      1153  TIP3      OH2            38.5819694280      -53.1962924159      -11.4572563352  W2        1153            0.0000000000
      3458      1153  TIP3      H1             37.6927694280      -53.0967424159      -11.7972963352  W2        1153            0.0000000000
      3459      1153  TIP3      H2             38.8784594280      -54.0379924159      -11.8034663352  W2        1153            0.0000000000
      3460      1154  TIP3      OH2            42.2351494280      -53.1960324159      -13.8007963352  W2        1154            0.0000000000
      3461      1154  TIP3      H1             43.1666994280      -53.0670324159      -13.6224863352  W2        1154            0.0000000000
      3462      1154  TIP3      H2             42.0201794280      -52.5266024159      -14.4503263352  W2        1154            0.0000000000
      3463      1155  TIP3      OH2            48.1588194280      -55.5902924159       -7.0198363352  W2        1155            0.0000000000
      3464      1155  TIP3      H1             47.4819794280      -55.4589824159       -6.3558663352  W2        1155            0.0000000000
      3465      1155  TIP3      H2             47.6733094280      -55.7453424159       -7.8300663352  W2        1155            0.0000000000
      3466      1156  TIP3      OH2            40.9091694280      -52.0018124159      -16.2341863352  W2        1156            0.0000000000
      3467      1156  TIP3      H1             40.3666794280      -52.3814324159      -16.9254263352  W2        1156            0.0000000000
      3468      1156  TIP3      H2             41.7426594280      -51.8073424159      -16.6627763352  W2        1156            0.0000000000
      3469      1157  TIP3      OH2            51.4463294280      -39.9187524159       -0.7430763352  W2        1157            0.0000000000
      3470      1157  TIP3      H1             51.6461994280      -39.4945624159       -1.5775463352  W2        1157            0.0000000000
      3471      1157  TIP3      H2             52.1016994280      -39.5749324159       -0.1360363352  W2        1157            0.0000000000
      3472      1158  TIP3      OH2            39.0443094280      -47.4446224159       -1.1350263352  W2        1158            0.0000000000
      3473      1158  TIP3      H1             39.7765494280      -47.1900324159       -0.5735763352  W2        1158            0.0000000000
      3474      1158  TIP3      H2             38.2641794280      -47.2400824159       -0.6194863352  W2        1158            0.0000000000
      3475      1159  TIP3      OH2            45.0735994280      -52.0376224159       -8.3970563352  W2        1159            0.0000000000
      3476      1159  TIP3      H1             45.6379394280      -52.5839624159       -8.9440963352  W2        1159            0.0000000000
      3477      1159  TIP3      H2             44.9259394280      -52.5594324159       -7.6082963352  W2        1159            0.0000000000
      3478      1160  TIP3      OH2            40.0755694280      -55.9010124159      -11.9785763352  W2        1160            0.0000000000
      3479      1160  TIP3      H1             39.7585194280      -56.8034824159      -12.0140363352  W2        1160            0.0000000000
      3480      1160  TIP3      H2             40.8569794280      -55.8992724159      -12.5314163352  W2        1160            0.0000000000
      3481      1161  TIP3      OH2            43.7001894280      -53.6490124159       -5.9830163352  W2        1161            0.0000000000
      3482      1161  TIP3      H1             42.8647194280      -53.1950624159       -5.8727763352  W2        1161            0.0000000000
      3483      1161  TIP3      H2             44.2242494280      -53.3731624159       -5.2310263352  W2        1161            0.0000000000
      3484      1162  TIP3      OH2            44.2444494280      -47.4362424159      -14.2983763352  W2        1162            0.0000000000
      3485      1162  TIP3      H1             43.4995494280      -47.9437124159      -14.6205863352  W2        1162            0.0000000000
      3486      1162  TIP3      H2             44.1101694280      -47.3874424159      -13.3518963352  W2        1162            0.0000000000
      3487      1163  TIP3      OH2            51.3943394280      -48.3034224159       -5.5116163352  W2        1163            0.0000000000
      3488      1163  TIP3      H1             52.0362194280      -47.8467924159       -6.0553963352  W2        1163            0.0000000000
      3489      1163  TIP3      H2             50.5640294280      -48.1901824159       -5.9742063352  W2        1163            0.0000000000
      3490      1164  TIP3      OH2            48.1421294280      -54.6222524159      -16.0991163352  W2        1164            0.0000000000
      3491      1164  TIP3      H1             47.2035494280      -54.5106924159      -16.2502363352  W2        1164            0.0000000000
      3492      1164  TIP3      H2             48.4393394280      -53.7655624159      -15.7925463352  W2        1164            0.0000000000
      3493      1165  TIP3      OH2            45.7636594280      -47.2519124159       -3.0614663352  W2        1165            0.0000000000
      3494      1165  TIP3      H1             45.4182694280      -47.6336724159       -2.2545063352  W2        1165            0.0000000000
      3495      1165  TIP3      H2             45.5636694280      -46.3185524159       -2.9901763352  W2        1165            0.0000000000
      3496      1166  TIP3      OH2            48.8604794280      -52.7549824159      -14.4383763352  W2        1166            0.0000000000
      3497      1166  TIP3      H1             49.7523794280      -52.8924824159      -14.1192563352  W2        1166            0.0000000000
      3498      1166  TIP3      H2             48.9168394280      -51.9643724159      -14.9750263352  W2        1166            0.0000000000
      3499      1167  TIP3      OH2            39.3692794280      -48.1412424159       -8.5285863352  W2        1167            0.0000000000
      3500      1167  TIP3      H1             40.1139994280      -48.1436724159       -9.1299363352  W2        1167            0.0000000000
      3501      1167  TIP3      H2             39.4469394280      -48.9648624159       -8.0470763352  W2        1167            0.0000000000
      3502      1168  TIP3      OH2            46.3698594280      -45.9778124159      -15.2729163352  W2        1168            0.0000000000
      3503      1168  TIP3      H1             46.0746994280      -45.1510224159      -14.8914363352  W2        1168            0.0000000000
      3504      1168  TIP3      H2             45.6668594280      -46.5971224159      -15.0767763352  W2        1168            0.0000000000
      3505      1169  TIP3      OH2            36.3772494280      -49.6805524159       -3.2137363352  W2        1169            0.0000000000
      3506      1169  TIP3      H1             36.6001094280      -50.0985924159       -2.3819863352  W2        1169            0.0000000000
      3507      1169  TIP3      H2             35.7752594280      -50.2930524159       -3.6364563352  W2        1169            0.0000000000
      3508      1170  TIP3      OH2            43.3937394280      -50.1635624159       -1.0007663352  W2        1170            0.0000000000
      3509      1170  TIP3      H1             43.0978194280      -50.3292624159       -1.8958563352  W2        1170            0.0000000000
      3510      1170  TIP3      H2             44.3252594280      -50.3835324159       -1.0113763352  W2        1170            0.0000000000
      3511      1171  TIP3      OH2            48.0140194280      -44.7903624159       -3.1109663352  W2        1171            0.0000000000
      3512      1171  TIP3      H1             47.1134494280      -44.6071024159       -3.3785763352  W2        1171            0.0000000000
      3513      1171  TIP3      H2             48.0481294280      -44.5314324159       -2.1900863352  W2        1171            0.0000000000
      3514      1172  TIP3      OH2            53.7453494280      -52.5455724159      -14.7437063352  W2        1172            0.0000000000
      3515      1172  TIP3      H1             53.1909794280      -52.9417724159      -15.4159563352  W2        1172            0.0000000000
      3516      1172  TIP3      H2             53.8457094280      -51.6350524159      -15.0213763352  W2        1172            0.0000000000
      3517      1173  TIP3      OH2            53.7085494280      -46.7454024159       -1.9065563352  W2        1173            0.0000000000
      3518      1173  TIP3      H1             52.8573994280      -46.5070224159       -2.2739163352  W2        1173            0.0000000000
      3519      1173  TIP3      H2             54.2988894280      -46.7620824159       -2.6598463352  W2        1173            0.0000000000
      3520      1174  TIP3      OH2            52.0405194280      -43.7595324159      -14.2784963352  W2        1174            0.0000000000
      3521      1174  TIP3      H1             51.6676294280      -44.5851524159      -13.9694363352  W2        1174            0.0000000000
      3522      1174  TIP3      H2             52.3178694280      -43.9425924159      -15.1761563352  W2        1174            0.0000000000
      3523      1175  TIP3      OH2            49.2009094280      -48.9515824159       -7.2573063352  W2        1175            0.0000000000
      3524      1175  TIP3      H1             48.2725994280      -49.1833924159       -7.2843763352  W2        1175            0.0000000000
      3525      1175  TIP3      H2             49.6520194280      -49.7286024159       -7.5874263352  W2        1175            0.0000000000
      3526      1176  TIP3      OH2            41.7442194280      -44.6234224159      -11.1244363352  W2        1176            0.0000000000
      3527      1176  TIP3      H1             42.2714394280      -43.8499824159      -11.3245563352  W2        1176            0.0000000000
      3528      1176  TIP3      H2             40.8640694280      -44.3985024159      -11.4260363352  W2        1176            0.0000000000
      3529      1177  TIP3      OH2            37.4989894280      -49.7610124159      -16.5371963352  W2        1177            0.0000000000
      3530      1177  TIP3      H1             38.1149794280      -49.1342924159      -16.1577163352  W2        1177            0.0000000000
      3531      1177  TIP3      H2             36.6372494280      -49.4450324159      -16.2655463352  W2        1177            0.0000000000
      3532      1178  TIP3      OH2            43.1714494280      -46.9604324159      -11.5480063352  W2        1178            0.0000000000
      3533      1178  TIP3      H1             42.9304494280      -46.0349924159      -11.5064763352  W2        1178            0.0000000000
      3534      1178  TIP3      H2             42.4308094280      -47.4193024159      -11.1516163352  W2        1178            0.0000000000
      3535      1179  TIP3      OH2            43.6861094280      -42.8110724159       -5.2328963352  W2        1179            0.0000000000
      3536      1179  TIP3      H1             44.0485794280      -41.9565124159       -5.4664563352  W2        1179            0.0000000000
      3537      1179  TIP3      H2             44.2176294280      -43.1029124159       -4.4922663352  W2        1179            0.0000000000
      3538      1180  TIP3      OH2            41.8545294280      -41.9386724159      -12.0027863352  W2        1180            0.0000000000
      3539      1180  TIP3      H1             40.9045794280      -41.8329324159      -11.9514563352  W2        1180            0.0000000000
      3540      1180  TIP3      H2             42.2063394280      -41.1179324159      -11.6580363352  W2        1180            0.0000000000
      3541      1181  TIP3      OH2            47.2301894280      -46.7120024159       -5.5323363352  W2        1181            0.0000000000
      3542      1181  TIP3      H1             46.8043194280      -46.9398324159       -4.7059363352  W2        1181            0.0000000000
      3543      1181  TIP3      H2             47.8107694280      -47.4508224159       -5.7148063352  W2        1181            0.0000000000
      3544      1182  TIP3      OH2            49.4330794280      -45.7829524159      -16.4584363352  W2        1182            0.0000000000
      3545      1182  TIP3      H1             49.7863894280      -46.1629724159      -15.6540863352  W2        1182            0.0000000000
      3546      1182  TIP3      H2             48.4844294280      -45.8764724159      -16.3715063352  W2        1182            0.0000000000
      3547      1183  TIP3      OH2            49.8886094280      -42.1600524159       -3.0628563352  W2        1183            0.0000000000
      3548      1183  TIP3      H1             49.2869294280      -42.7157624159       -3.5582263352  W2        1183            0.0000000000
      3549      1183  TIP3      H2             50.1699794280      -41.4930724159       -3.6891163352  W2        1183            0.0000000000
      3550      1184  TIP3      OH2            53.9365194280      -41.3037024159      -16.2574163352  W2        1184            0.0000000000
      3551      1184  TIP3      H1             54.6803094280      -40.7176524159      -16.3972563352  W2        1184            0.0000000000
      3552      1184  TIP3      H2             53.2423294280      -40.7351224159      -15.9241763352  W2        1184            0.0000000000
      3553      1185  TIP3      OH2            38.0111994280      -54.9272824159       -3.6555963352  W2        1185            0.0000000000
      3554      1185  TIP3      H1             37.1184294280      -54.5887424159       -3.7231963352  W2        1185            0.0000000000
      3555      1185  TIP3      H2             37.9124794280      -55.7826724159       -3.2375163352  W2        1185            0.0000000000
      3556      1186  TIP3      OH2            50.2990094280      -47.1107524159      -14.2316463352  W2        1186            0.0000000000
      3557      1186  TIP3      H1             50.0217694280      -47.8388224159      -13.6755363352  W2        1186            0.0000000000
      3558      1186  TIP3      H2             51.2263094280      -46.9915524159      -14.0263863352  W2        1186            0.0000000000
      3559      1187  TIP3      OH2            37.6623994280      -43.1228424159       -5.2206563352  W2        1187            0.0000000000
      3560      1187  TIP3      H1             37.8794294280      -44.0546024159       -5.2516863352  W2        1187            0.0000000000
      3561      1187  TIP3      H2             37.9087494280      -42.8483424159       -4.3373763352  W2        1187            0.0000000000
      3562      1188  TIP3      OH2            43.5238594280      -44.6713424159      -18.0114363352  W2        1188            0.0000000000
      3563      1188  TIP3      H1             43.7628394280      -45.4195324159      -18.5585463352  W2        1188            0.0000000000
      3564      1188  TIP3      H2             43.2549894280      -45.0591724159      -17.1786563352  W2        1188            0.0000000000
      3565      1189  TIP3      OH2            42.4609194280      -45.1009624159      -15.5551763352  W2        1189            0.0000000000
      3566      1189  TIP3      H1             42.6077194280      -45.6209824159      -14.7650863352  W2        1189            0.0000000000
      3567      1189  TIP3      H2             42.4580894280      -44.1942024159      -15.2485863352  W2        1189            0.0000000000
      3568      1190  TIP3      OH2            38.9140294280      -47.8486324159      -15.0446363352  W2        1190            0.0000000000
      3569      1190  TIP3      H1             38.2279594280      -47.4963824159      -14.4776663352  W2        1190            0.0000000000
      3570      1190  TIP3      H2             39.4368194280      -47.0856724159      -15.2912063352  W2        1190            0.0000000000
      3571      1191  TIP3      OH2            46.7455394280      -55.1862524159       -4.7657363352  W2        1191            0.0000000000
      3572      1191  TIP3      H1             47.4443294280      -55.1123824159       -4.1157663352  W2        1191            0.0000000000
      3573      1191  TIP3      H2             46.3646794280      -56.0507524159       -4.6114463352  W2        1191            0.0000000000
      3574      1192  TIP3      OH2            47.5300294280      -55.5340824159      -13.6685063352  W2        1192            0.0000000000
      3575      1192  TIP3      H1             47.7498594280      -55.0625424159      -14.4719663352  W2        1192            0.0000000000
      3576      1192  TIP3      H2             48.0884294280      -55.1398224159      -12.9984463352  W2        1192            0.0000000000
      3577      1193  TIP3      OH2            45.1986394280      -43.4036024159      -14.8057563352  W2        1193            0.0000000000
      3578      1193  TIP3      H1             44.3822494280      -42.9066324159      -14.7533263352  W2        1193            0.0000000000
      3579      1193  TIP3      H2             45.7282694280      -42.9282524159      -15.4458763352  W2        1193            0.0000000000
      3580      1194  TIP3      OH2            44.7300194280      -53.8062024159      -12.8336663352  W2        1194            0.0000000000
      3581      1194  TIP3      H1             45.5422794280      -53.3018824159      -12.7874963352  W2        1194            0.0000000000
      3582      1194  TIP3      H2             44.4853194280      -53.9512324159      -11.9197063352  W2        1194            0.0000000000
      3583      1195  TIP3      OH2            45.2656594280      -52.8199324159       -3.6490063352  W2        1195            0.0000000000
      3584      1195  TIP3      H1             45.3846894280      -52.2463924159       -2.8919663352  W2        1195            0.0000000000
      3585      1195  TIP3      H2             45.9211194280      -53.5079924159       -3.5342263352  W2        1195            0.0000000000
      3586      1196  TIP3      OH2            45.6136894280      -56.7249024159      -11.8955563352  W2        1196            0.0000000000
      3587      1196  TIP3      H1             45.2670394280      -56.1078424159      -11.2511263352  W2        1196            0.0000000000
      3588      1196  TIP3      H2             46.2723794280      -56.2243324159      -12.3770063352  W2        1196            0.0000000000
      3589      1197  TIP3      OH2            42.5369494280      -42.3598824159      -14.8240663352  W2        1197            0.0000000000
      3590      1197  TIP3      H1             42.6978194280      -41.5601324159      -15.3248063352  W2        1197            0.0000000000
      3591      1197  TIP3      H2             42.3397294280      -42.0532824159      -13.9390063352  W2        1197            0.0000000000
      3592      1198  TIP3      OH2            41.2713894280      -55.6619624159      -15.2083063352  W2        1198            0.0000000000
      3593      1198  TIP3      H1             41.1878694280      -54.7736524159      -14.8616663352  W2        1198            0.0000000000
      3594      1198  TIP3      H2             42.1614194280      -55.9272924159      -14.9766263352  W2        1198            0.0000000000
      3595      1199  TIP3      OH2            51.4702394280      -54.9129024159       -2.8140363352  W2        1199            0.0000000000
      3596      1199  TIP3      H1             50.5538194280      -54.6507324159       -2.9016663352  W2        1199            0.0000000000
      3597      1199  TIP3      H2             51.8057394280      -54.9160024159       -3.7105063352  W2        1199            0.0000000000
      3598      1200  TIP3      OH2            50.0723394280      -51.1628024159       -8.7183063352  W2        1200            0.0000000000
      3599      1200  TIP3      H1             49.2747794280      -51.5777824159       -9.0468063352  W2        1200            0.0000000000
      3600      1200  TIP3      H2             50.5174494280      -51.8534324159       -8.2272563352  W2        1200            0.0000000000
      3601      1201  TIP3      OH2            39.5299194280      -45.2347424159      -16.1478563352  W2        1201            0.0000000000
      3602      1201  TIP3      H1             40.1220694280      -44.5352624159      -15.8716163352  W2        1201            0.0000000000
      3603      1201  TIP3      H2             39.9892194280      -45.6677924159      -16.8673963352  W2        1201            0.0000000000
      3604      1202  TIP3      OH2            37.8458394280      -52.5704424159      -17.0319163352  W2        1202            0.0000000000
      3605      1202  TIP3      H1             37.8010994280      -51.6311324159      -16.8532163352  W2        1202            0.0000000000
      3606      1202  TIP3      H2             36.9581594280      -52.8059524159      -17.3017063352  W2        1202            0.0000000000
      3607      1203  TIP3      OH2            51.1587994280      -41.9065524159       -7.0959563352  W2        1203            0.0000000000
      3608      1203  TIP3      H1             51.0032294280      -41.2281124159       -7.7530263352  W2        1203            0.0000000000
      3609      1203  TIP3      H2             52.0914394280      -41.8346224159       -6.8928963352  W2        1203            0.0000000000
      3610      1204  TIP3      OH2            38.6540394280      -57.7887824159       -8.3588163352  W2        1204            0.0000000000
      3611      1204  TIP3      H1             38.4250194280      -57.7295324159       -9.2863163352  W2        1204            0.0000000000
      3612      1204  TIP3      H2             38.2113794280      -58.5802324159       -8.0524063352  W2        1204            0.0000000000
      3613      1205  TIP3      OH2            37.5843694280      -43.8480724159      -12.1982363352  W2        1205            0.0000000000
      3614      1205  TIP3      H1             36.7522294280      -43.3758024159      -12.1710963352  W2        1205            0.0000000000
      3615      1205  TIP3      H2             38.1301994280      -43.3383124159      -12.7969263352  W2        1205            0.0000000000
      3616      1206  TIP3      OH2            36.8727394280      -41.2357024159       -0.8684363352  W2        1206            0.0000000000
      3617      1206  TIP3      H1             37.4129594280      -41.4523024159       -0.1085163352  W2        1206            0.0000000000
      3618      1206  TIP3      H2             36.3915394280      -42.0411024159       -1.0581863352  W2        1206            0.0000000000
      3619      1207  TIP3      OH2            41.4700794280      -42.3162624159        0.7519836648  W2        1207            0.0000000000
      3620      1207  TIP3      H1             42.2377994280      -42.7751824159        1.0929036648  W2        1207            0.0000000000
      3621      1207  TIP3      H2             41.4486994280      -42.5422824159       -0.1778963352  W2        1207            0.0000000000
      3622      1208  TIP3      OH2            45.5620394280      -42.8082024159      -17.8728363352  W2        1208            0.0000000000
      3623      1208  TIP3      H1             44.9181394280      -43.4393424159      -17.5514663352  W2        1208            0.0000000000
      3624      1208  TIP3      H2             46.3238694280      -43.3394024159      -18.1044863352  W2        1208            0.0000000000
      3625      1209  TIP3      OH2            48.0469494280      -43.9361524159       -0.5188663352  W2        1209            0.0000000000
      3626      1209  TIP3      H1             47.6958994280      -44.7928524159       -0.2758263352  W2        1209            0.0000000000
      3627      1209  TIP3      H2             48.7732694280      -43.7934824159        0.0880336648  W2        1209            0.0000000000
      3628      1210  TIP3      OH2            50.1663294280      -42.9912124159      -17.6390363352  W2        1210            0.0000000000
      3629      1210  TIP3      H1             50.4493694280      -43.7856924159      -17.1863463352  W2        1210            0.0000000000
      3630      1210  TIP3      H2             50.9061194280      -42.7581124159      -18.1999263352  W2        1210            0.0000000000
      3631      1211  TIP3      OH2            36.7796894280      -47.4252924159        0.0859936648  W2        1211            0.0000000000
      3632      1211  TIP3      H1             36.9237394280      -48.3272224159       -0.2003363352  W2        1211            0.0000000000
      3633      1211  TIP3      H2             36.0074294280      -47.1390824159       -0.4017763352  W2        1211            0.0000000000
      3634      1212  TIP3      OH2            41.1210594280      -47.0817224159      -17.7815463352  W2        1212            0.0000000000
      3635      1212  TIP3      H1             41.1854694280      -47.8757624159      -17.2509063352  W2        1212            0.0000000000
      3636      1212  TIP3      H2             41.7739794280      -47.2004424159      -18.4713463352  W2        1212            0.0000000000
      3637      1213  TIP3      OH2            43.4352994280      -47.4554824159       -0.4813663352  W2        1213            0.0000000000
      3638      1213  TIP3      H1             43.1066794280      -47.1846724159       -1.3386263352  W2        1213            0.0000000000
      3639      1213  TIP3      H2             43.5871194280      -48.3965024159       -0.5688663352  W2        1213            0.0000000000
      3640      1214  TIP3      OH2            46.4733994280      -46.0345524159      -18.0457463352  W2        1214            0.0000000000
      3641      1214  TIP3      H1             46.2048094280      -45.8543424159      -17.1448563352  W2        1214            0.0000000000
      3642      1214  TIP3      H2             46.2669594280      -46.9599324159      -18.1771663352  W2        1214            0.0000000000
      3643      1215  TIP3      OH2            49.1698194280      -47.5397524159       -3.0981363352  W2        1215            0.0000000000
      3644      1215  TIP3      H1             49.9152994280      -46.9513824159       -3.2177363352  W2        1215            0.0000000000
      3645      1215  TIP3      H2             48.4124994280      -46.9577824159       -3.0348263352  W2        1215            0.0000000000
      3646      1216  TIP3      OH2            37.6123394280      -50.2249624159       -0.4940763352  W2        1216            0.0000000000
      3647      1216  TIP3      H1             38.0204594280      -51.0823024159       -0.6150163352  W2        1216            0.0000000000
      3648      1216  TIP3      H2             37.3520994280      -50.2108324159        0.4269536648  W2        1216            0.0000000000
      3649      1217  TIP3      OH2            42.2704394280      -49.1091024159      -15.4757463352  W2        1217            0.0000000000
      3650      1217  TIP3      H1             41.8106394280      -49.5932724159      -14.7898963352  W2        1217            0.0000000000
      3651      1217  TIP3      H2             42.5253094280      -49.7775624159      -16.1116963352  W2        1217            0.0000000000
      3652      1218  TIP3      OH2            41.5593694280      -51.2163924159       -3.1197863352  W2        1218            0.0000000000
      3653      1218  TIP3      H1             40.9409794280      -50.5417324159       -2.8393163352  W2        1218            0.0000000000
      3654      1218  TIP3      H2             41.9034894280      -50.8950024159       -3.9531663352  W2        1218            0.0000000000
      3655      1219  TIP3      OH2            43.3414794280      -50.8659224159      -17.2134263352  W2        1219            0.0000000000
      3656      1219  TIP3      H1             43.1609794280      -51.0208024159      -18.1405963352  W2        1219            0.0000000000
      3657      1219  TIP3      H2             44.2915294280      -50.7580524159      -17.1686363352  W2        1219            0.0000000000
      3658      1220  TIP3      OH2            46.5791894280      -48.7448624159        0.1576936648  W2        1220            0.0000000000
      3659      1220  TIP3      H1             47.5323094280      -48.6609524159        0.1302936648  W2        1220            0.0000000000
      3660      1220  TIP3      H2             46.4186494280      -49.4566824159        0.7771836648  W2        1220            0.0000000000
      3661      1221  TIP3      OH2            52.7313094280      -48.5115024159      -17.7676163352  W2        1221            0.0000000000
      3662      1221  TIP3      H1             52.4577894280      -48.9359524159      -18.5807863352  W2        1221            0.0000000000
      3663      1221  TIP3      H2             52.7707194280      -47.5800524159      -17.9845763352  W2        1221            0.0000000000
      3664      1222  TIP3      OH2            41.8987394280      -53.8613124159       -2.0374763352  W2        1222            0.0000000000
      3665      1222  TIP3      H1             42.0488294280      -54.5901824159       -2.6395063352  W2        1222            0.0000000000
      3666      1222  TIP3      H2             41.9009794280      -53.0841424159       -2.5962563352  W2        1222            0.0000000000
      3667      1223  TIP3      OH2            42.3113094280      -55.4917324159       -4.5447363352  W2        1223            0.0000000000
      3668      1223  TIP3      H1             42.8470594280      -55.0400624159       -5.1968063352  W2        1223            0.0000000000
      3669      1223  TIP3      H2             41.4592694280      -55.5997524159       -4.9673263352  W2        1223            0.0000000000
      3670      1224  TIP3      OH2            43.8931494280      -50.0521124159       -4.3052163352  W2        1224            0.0000000000
      3671      1224  TIP3      H1             44.6436294280      -50.2083624159       -4.8784363352  W2        1224            0.0000000000
      3672      1224  TIP3      H2             43.5539794280      -49.2004524159       -4.5806663352  W2        1224            0.0000000000
      3673      1225  TIP3      OH2            48.3087694280      -52.2369324159        0.7233136648  W2        1225            0.0000000000
      3674      1225  TIP3      H1             48.5008994280      -53.1679924159        0.6117636648  W2        1225            0.0000000000
      3675      1225  TIP3      H2             49.1663994280      -51.8119824159        0.7128536648  W2        1225            0.0000000000
      3676      1226  TIP3      OH2            49.6254894280      -49.4484124159       -1.1994163352  W2        1226            0.0000000000
      3677      1226  TIP3      H1             49.3439894280      -48.7389524159       -1.7770363352  W2        1226            0.0000000000
      3678      1226  TIP3      H2             50.5679194280      -49.5211124159       -1.3502963352  W2        1226            0.0000000000
      3679      1227  TIP3      OH2            40.3773694280      -52.6629624159       -0.1259163352  W2        1227            0.0000000000
      3680      1227  TIP3      H1             39.6102694280      -53.1954824159       -0.3361563352  W2        1227            0.0000000000
      3681      1227  TIP3      H2             41.0562694280      -52.9729224159       -0.7252863352  W2        1227            0.0000000000
      3682      1228  TIP3      OH2            43.1168594280      -58.0351624159       -4.1133763352  W2        1228            0.0000000000
      3683      1228  TIP3      H1             43.0188194280      -57.0888424159       -4.2187563352  W2        1228            0.0000000000
      3684      1228  TIP3      H2             42.3744794280      -58.4077824159       -4.5890263352  W2        1228            0.0000000000
      3685      1229  TIP3      OH2            44.3809094280      -53.7136224159       -0.5495363352  W2        1229            0.0000000000
      3686      1229  TIP3      H1             44.1454494280      -53.9329524159        0.3519536648  W2        1229            0.0000000000
      3687      1229  TIP3      H2             43.5975994280      -53.9205024159       -1.0592863352  W2        1229            0.0000000000
      3688      1230  TIP3      OH2            47.0965694280      -54.5862724159       -1.4741863352  W2        1230            0.0000000000
      3689      1230  TIP3      H1             46.1491094280      -54.5543024159       -1.3418563352  W2        1230            0.0000000000
      3690      1230  TIP3      H2             47.4092394280      -55.2115624159       -0.8203663352  W2        1230            0.0000000000
      3691      1231  TIP3      OH2            48.7307194280      -55.9521624159        0.5310036648  W2        1231            0.0000000000
      3692      1231  TIP3      H1             48.6338994280      -56.9044324159        0.5251936648  W2        1231            0.0000000000
      3693      1231  TIP3      H2             48.4090294280      -55.6834824159        1.3915536648  W2        1231            0.0000000000
      3694      1232  TIP3      OH2            38.5576494280      -54.7425824159       -0.4214463352  W2        1232            0.0000000000
      3695      1232  TIP3      H1             38.7693894280      -55.4489724159       -1.0316963352  W2        1232            0.0000000000
      3696      1232  TIP3      H2             38.4463994280      -55.1799824159        0.4226736648  W2        1232            0.0000000000
      3697      1233  TIP3      OH2            43.3386694280      -58.7414224159       -1.4420963352  W2        1233            0.0000000000
      3698      1233  TIP3      H1             44.0505094280      -59.3812024159       -1.4561863352  W2        1233            0.0000000000
      3699      1233  TIP3      H2             43.2377094280      -58.4745924159       -2.3557863352  W2        1233            0.0000000000
      3700      1234  TIP3      OH2            43.6924194280      -57.0585824159        0.6115336648  W2        1234            0.0000000000
      3701      1234  TIP3      H1             43.5606394280      -57.5342024159       -0.2086163352  W2        1234            0.0000000000
      3702      1234  TIP3      H2             43.0931594280      -56.3142224159        0.5562436648  W2        1234            0.0000000000
      3703      1235  TIP3      OH2            43.2386494280      -40.1755524159      -16.2120663352  W2        1235            0.0000000000
      3704      1235  TIP3      H1             44.1717194280      -40.0176824159      -16.0682263352  W2        1235            0.0000000000
      3705      1235  TIP3      H2             42.9745294280      -39.5002524159      -16.8369163352  W2        1235            0.0000000000
      3706      1236  TIP3      OH2            36.8071394280      -45.5391724159      -16.7292563352  W2        1236            0.0000000000
      3707      1236  TIP3      H1             37.7210594280      -45.4602824159      -16.4558663352  W2        1236            0.0000000000
      3708      1236  TIP3      H2             36.8144494280      -46.2262124159      -17.3956963352  W2        1236            0.0000000000
      3709      1237  TIP3      OH2            35.4561994280      -40.1463224159      -11.6518663352  W2        1237            0.0000000000
      3710      1237  TIP3      H1             34.8089094280      -40.6081524159      -12.1847463352  W2        1237            0.0000000000
      3711      1237  TIP3      H2             35.8106594280      -40.8179924159      -11.0692463352  W2        1237            0.0000000000
      3712      1238  TIP3      OH2            36.3261194280      -42.0656224159       -9.8472463352  W2        1238            0.0000000000
      3713      1238  TIP3      H1             35.9917994280      -42.9458924159       -9.6752263352  W2        1238            0.0000000000
      3714      1238  TIP3      H2             36.5483594280      -41.7201224159       -8.9826863352  W2        1238            0.0000000000
      3715      1239  TIP3      OH2            53.8745994280      -41.2559824159       -6.8667663352  W2        1239            0.0000000000
      3716      1239  TIP3      H1             53.8532694280      -41.0711424159       -5.9278263352  W2        1239            0.0000000000
      3717      1239  TIP3      H2             54.5652194280      -40.6875824159       -7.2076263352  W2        1239            0.0000000000
      3718      1240  TIP3      OH2            53.4378894280      -41.6888724159       -3.9448563352  W2        1240            0.0000000000
      3719      1240  TIP3      H1             52.9507594280      -42.4244624159       -4.3161163352  W2        1240            0.0000000000
      3720      1240  TIP3      H2             53.9871594280      -42.0824824159       -3.2669163352  W2        1240            0.0000000000
      3721      1241  TIP3      OH2            51.8886194280      -45.8990624159        0.6931736648  W2        1241            0.0000000000
      3722      1241  TIP3      H1             51.0227294280      -46.0040924159        1.0874036648  W2        1241            0.0000000000
      3723      1241  TIP3      H2             52.2652094280      -45.1407324159        1.1396436648  W2        1241            0.0000000000
      3724      1242  TIP3      OH2            53.1895894280      -47.6426924159      -13.7925763352  W2        1242            0.0000000000
      3725      1242  TIP3      H1             54.0397294280      -47.2216024159      -13.6654163352  W2        1242            0.0000000000
      3726      1242  TIP3      H2             53.1950994280      -48.3826824159      -13.1854363352  W2        1242            0.0000000000
      3727      1243  TIP3      OH2            53.5841494280      -49.5889524159      -11.9690063352  W2        1243            0.0000000000
      3728      1243  TIP3      H1             52.8576094280      -50.0686924159      -11.5712463352  W2        1243            0.0000000000
      3729      1243  TIP3      H2             54.1654794280      -49.3834824159      -11.2368463352  W2        1243            0.0000000000
      3730      1244  TIP3      OH2            53.3432694280      -46.8042024159       -7.0212463352  W2        1244            0.0000000000
      3731      1244  TIP3      H1             54.1766894280      -47.1822024159       -7.3018863352  W2        1244            0.0000000000
      3732      1244  TIP3      H2             53.4552994280      -45.8610824159       -7.1403363352  W2        1244            0.0000000000
      3733      1245  TIP3      OH2            51.8294994280      -43.9264524159       -4.7144063352  W2        1245            0.0000000000
      3734      1245  TIP3      H1             51.1820294280      -43.6013024159       -4.0888863352  W2        1245            0.0000000000
      3735      1245  TIP3      H2             51.3118994280      -44.3666824159       -5.3885763352  W2        1245            0.0000000000
      3736      1246  TIP3      OH2            53.8524594280      -49.6881024159      -15.5778763352  W2        1246            0.0000000000
      3737      1246  TIP3      H1             53.3305694280      -49.3316924159      -16.2967863352  W2        1246            0.0000000000
      3738      1246  TIP3      H2             53.8193794280      -49.0133224159      -14.8997863352  W2        1246            0.0000000000
      3739      1247  TIP3      OH2            52.2013594280      -52.4485424159      -17.0271663352  W2        1247            0.0000000000
      3740      1247  TIP3      H1             52.2977994280      -51.7818424159      -17.7071963352  W2        1247            0.0000000000
      3741      1247  TIP3      H2             52.0613194280      -53.2639124159      -17.5086163352  W2        1247            0.0000000000
      3742      1248  TIP3      OH2            51.3708294280      -51.0683024159      -11.4061363352  W2        1248            0.0000000000
      3743      1248  TIP3      H1             51.2207094280      -52.0134424159      -11.4263563352  W2        1248            0.0000000000
      3744      1248  TIP3      H2             51.0172794280      -50.7871624159      -10.5622263352  W2        1248            0.0000000000
      3745      1249  TIP3      OH2            36.4060694280      -48.9900824159       -7.3957563352  W2        1249            0.0000000000
      3746      1249  TIP3      H1             36.5903594280      -49.0719124159       -8.3314663352  W2        1249            0.0000000000
      3747      1249  TIP3      H2             37.2553594280      -49.1143824159       -6.9721163352  W2        1249            0.0000000000
      3748      1250  TIP3      OH2            52.2271194280      -49.0979724159       -1.7673063352  W2        1250            0.0000000000
      3749      1250  TIP3      H1             52.8098494280      -49.8327424159       -1.5755863352  W2        1250            0.0000000000
      3750      1250  TIP3      H2             52.7910494280      -48.3259424159       -1.7207263352  W2        1250            0.0000000000
      3751      1251  TIP3      OH2            53.7238294280      -51.1953924159       -1.0827663352  W2        1251            0.0000000000
      3752      1251  TIP3      H1             52.8604994280      -51.5741824159       -1.2482963352  W2        1251            0.0000000000
      3753      1251  TIP3      H2             54.3281994280      -51.9339124159       -1.1571863352  W2        1251            0.0000000000
      3754      1252  TIP3      OH2            51.4487394280      -55.0405624159      -17.9096163352  W2        1252            0.0000000000
      3755      1252  TIP3      H1             52.0593194280      -55.4118824159      -17.2727963352  W2        1252            0.0000000000
      3756      1252  TIP3      H2             50.6118894280      -55.4618724159      -17.7136163352  W2        1252            0.0000000000
      3757      1253  TIP3      OH2            51.0813094280      -53.4857224159      -12.9436263352  W2        1253            0.0000000000
      3758      1253  TIP3      H1             51.3610194280      -54.3926824159      -12.8194563352  W2        1253            0.0000000000
      3759      1253  TIP3      H2             51.8404794280      -53.0515724159      -13.3327063352  W2        1253            0.0000000000
      3760      1254  TIP3      OH2            51.6931394280      -52.9039824159       -7.5077363352  W2        1254            0.0000000000
      3761      1254  TIP3      H1             52.6259394280      -52.6919924159       -7.5421363352  W2        1254            0.0000000000
      3762      1254  TIP3      H2             51.4578894280      -52.8027724159       -6.5854363352  W2        1254            0.0000000000
      3763      1255  TIP3      OH2            51.7223294280      -52.1674524159       -4.7317963352  W2        1255            0.0000000000
      3764      1255  TIP3      H1             50.8794594280      -51.8994124159       -4.3658163352  W2        1255            0.0000000000
      3765      1255  TIP3      H2             52.1647594280      -51.3452624159       -4.9426863352  W2        1255            0.0000000000
      3766      1256  TIP3      OH2            36.0035494280      -53.7195824159       -1.2548763352  W2        1256            0.0000000000
      3767      1256  TIP3      H1             36.9230394280      -53.8417524159       -1.0185663352  W2        1256            0.0000000000
      3768      1256  TIP3      H2             35.5539994280      -54.4696124159       -0.8655263352  W2        1256            0.0000000000
      3769      1257  TIP3      OH2            54.0054894280      -58.1874324159        0.6217036648  W2        1257            0.0000000000
      3770      1257  TIP3      H1             54.3551894280      -58.8410824159        0.0161736648  W2        1257            0.0000000000
      3771      1257  TIP3      H2             54.1524394280      -57.3500224159        0.1819636648  W2        1257            0.0000000000
      3772      1258  TIP3      OH2            51.6947894280      -56.2227924159      -12.8954263352  W2        1258            0.0000000000
      3773      1258  TIP3      H1             51.8772894280      -56.6716424159      -12.0699263352  W2        1258            0.0000000000
      3774      1258  TIP3      H2             51.0950794280      -56.8073524159      -13.3589663352  W2        1258            0.0000000000
      3775      1259  TIP3      OH2            37.2247994280      -55.4074224159       -8.3635863352  W2        1259            0.0000000000
      3776      1259  TIP3      H1             37.6699594280      -56.1991724159       -8.0616163352  W2        1259            0.0000000000
      3777      1259  TIP3      H2             37.6910994280      -54.6909024159       -7.9330263352  W2        1259            0.0000000000
      3778      1260  TIP3      OH2            35.5288294280      -52.4081224159       -7.2945663352  W2        1260            0.0000000000
      3779      1260  TIP3      H1             36.0208094280      -52.6290724159       -8.0853663352  W2        1260            0.0000000000
      3780      1260  TIP3      H2             35.8909194280      -51.5677824159       -7.0136163352  W2        1260            0.0000000000
      3781      1261  TIP3      OH2            53.5252094280      -56.0779724159       -1.0291663352  W2        1261            0.0000000000
      3782      1261  TIP3      H1             52.6077794280      -55.8072624159       -1.0648163352  W2        1261            0.0000000000
      3783      1261  TIP3      H2             53.6481494280      -56.6131324159       -1.8131963352  W2        1261            0.0000000000
      3784      1262  TIP3      OH2            53.5614094280      -56.1549824159      -16.3673963352  W2        1262            0.0000000000
      3785      1262  TIP3      H1             53.9736694280      -56.8764124159      -16.8425963352  W2        1262            0.0000000000
      3786      1262  TIP3      H2             54.2430594280      -55.4855224159      -16.3089663352  W2        1262            0.0000000000
      3787      1263  TIP3      OH2            35.8424794280      -56.1502124159      -13.2403263352  W2        1263            0.0000000000
      3788      1263  TIP3      H1             34.9173194280      -55.9415524159      -13.3697763352  W2        1263            0.0000000000
      3789      1263  TIP3      H2             36.2964694280      -55.6661324159      -13.9300963352  W2        1263            0.0000000000
      3790      1264  TIP3      OH2            50.6131994280      -41.1660424159      -11.2945863352  W2        1264            0.0000000000
      3791      1264  TIP3      H1             51.2654894280      -41.5138324159      -11.9026763352  W2        1264            0.0000000000
      3792      1264  TIP3      H2             51.1235794280      -40.6777224159      -10.6486163352  W2        1264            0.0000000000
      3793      1265  TIP3      OH2            35.8060194280      -57.4123124159       -4.8960763352  W2        1265            0.0000000000
      3794      1265  TIP3      H1             35.1410694280      -57.6582824159       -4.2529863352  W2        1265            0.0000000000
      3795      1265  TIP3      H2             35.3631494280      -56.7902724159       -5.4732763352  W2        1265            0.0000000000
      3796      1266  TIP3      OH2            37.9979494280      -44.2369024159       -0.7514963352  W2        1266            0.0000000000
      3797      1266  TIP3      H1             37.1771994280      -44.0622524159       -1.2120263352  W2        1266            0.0000000000
      3798      1266  TIP3      H2             37.7457294280      -44.3104324159        0.1689436648  W2        1266            0.0000000000
      3799      1267  TIP3      OH2            40.9522394280      -43.2627824159       -4.4930963352  W2        1267            0.0000000000
      3800      1267  TIP3      H1             40.5273494280      -42.4529324159       -4.7756363352  W2        1267            0.0000000000
      3801      1267  TIP3      H2             41.8565194280      -43.1773724159       -4.7951163352  W2        1267            0.0000000000
      3802      1268  TIP3      OH2            45.2633794280      -41.8637824159       -1.5337263352  W2        1268            0.0000000000
      3803      1268  TIP3      H1             45.4481294280      -42.1971724159       -0.6556963352  W2        1268            0.0000000000
      3804      1268  TIP3      H2             46.1098294280      -41.5539224159       -1.8558063352  W2        1268            0.0000000000
      3805      1269  TIP3      OH2            47.6084194280      -40.5778924159       -2.2895863352  W2        1269            0.0000000000
      3806      1269  TIP3      H1             48.2853094280      -41.2106624159       -2.5296663352  W2        1269            0.0000000000
      3807      1269  TIP3      H2             47.9302994280      -40.1768424159       -1.4822563352  W2        1269            0.0000000000
      3808      1270  TIP3      OH2            52.5257994280      -57.9883424159       -3.2100863352  W2        1270            0.0000000000
      3809      1270  TIP3      H1             51.7131494280      -57.6633124159       -3.5976163352  W2        1270            0.0000000000
      3810      1270  TIP3      H2             52.7586494280      -58.7484924159       -3.7431763352  W2        1270            0.0000000000
      3811      1271  TIP3      OH2            38.3539094280      -40.0063924159       -4.4455663352  W2        1271            0.0000000000
      3812      1271  TIP3      H1             37.6335494280      -39.5662924159       -4.8967963352  W2        1271            0.0000000000
      3813      1271  TIP3      H2             37.9883094280      -40.2569224159       -3.5971663352  W2        1271            0.0000000000
      3814      1272  TIP3      OH2            40.8211694280      -40.4060024159       -5.4158463352  W2        1272            0.0000000000
      3815      1272  TIP3      H1             39.9563894280      -40.3341524159       -5.0118363352  W2        1272            0.0000000000
      3816      1272  TIP3      H2             40.7660694280      -39.8592724159       -6.1995963352  W2        1272            0.0000000000
      3817      1273  TIP3      OH2            45.5317294280      -40.5181124159       -6.2402463352  W2        1273            0.0000000000
      3818      1273  TIP3      H1             45.0751294280      -39.9891424159       -6.8944063352  W2        1273            0.0000000000
      3819      1273  TIP3      H2             45.6945294280      -39.9149724159       -5.5150163352  W2        1273            0.0000000000
      3820      1274  TIP3      OH2            47.8593594280      -41.6401524159       -5.2952163352  W2        1274            0.0000000000
      3821      1274  TIP3      H1             46.9547294280      -41.4751324159       -5.5610063352  W2        1274            0.0000000000
      3822      1274  TIP3      H2             48.2882194280      -40.7869324159       -5.3608763352  W2        1274            0.0000000000
      3823      1275  TIP3      OH2            50.4635494280      -40.0702424159       -5.0004363352  W2        1275            0.0000000000
      3824      1275  TIP3      H1             50.2817494280      -39.1543524159       -5.2109463352  W2        1275            0.0000000000
      3825      1275  TIP3      H2             50.6403294280      -40.4805324159       -5.8469763352  W2        1275            0.0000000000
      3826      1276  TIP3      OH2            37.7687194280      -41.3831424159       -7.5353863352  W2        1276            0.0000000000
      3827      1276  TIP3      H1             37.7503194280      -41.8086324159       -6.6781563352  W2        1276            0.0000000000
      3828      1276  TIP3      H2             38.5735094280      -41.7016424159       -7.9441663352  W2        1276            0.0000000000
      3829      1277  TIP3      OH2            39.9100294280      -42.6732724159       -8.8803963352  W2        1277            0.0000000000
      3830      1277  TIP3      H1             39.6910994280      -43.5895324159       -8.7107963352  W2        1277            0.0000000000
      3831      1277  TIP3      H2             40.7342494280      -42.5332324159       -8.4142563352  W2        1277            0.0000000000
      3832      1278  TIP3      OH2            42.4472794280      -42.2033424159       -8.0315963352  W2        1278            0.0000000000
      3833      1278  TIP3      H1             42.6598494280      -43.0914424159       -8.3185063352  W2        1278            0.0000000000
      3834      1278  TIP3      H2             42.5117894280      -42.2375724159       -7.0771963352  W2        1278            0.0000000000
      3835      1279  TIP3      OH2            45.9556494280      -56.5392824159       -8.8872663352  W2        1279            0.0000000000
      3836      1279  TIP3      H1             45.2813294280      -57.1687224159       -8.6316863352  W2        1279            0.0000000000
      3837      1279  TIP3      H2             46.5195694280      -57.0233924159       -9.4904763352  W2        1279            0.0000000000
      3838      1280  TIP3      OH2            51.0983694280      -58.4318824159       -8.7745563352  W2        1280            0.0000000000
      3839      1280  TIP3      H1             51.7021294280      -57.8843424159       -9.2764563352  W2        1280            0.0000000000
      3840      1280  TIP3      H2             50.2285694280      -58.1128424159       -9.0151463352  W2        1280            0.0000000000
      3841      1281  TIP3      OH2            52.8254094280      -57.2930124159      -10.4414663352  W2        1281            0.0000000000
      3842      1281  TIP3      H1             53.4371594280      -57.8074424159      -10.9681063352  W2        1281            0.0000000000
      3843      1281  TIP3      H2             53.2077494280      -56.4158024159      -10.4180263352  W2        1281            0.0000000000
      3844      1282  TIP3      OH2            38.2823994280      -57.9052524159      -11.0652763352  W2        1282            0.0000000000
      3845      1282  TIP3      H1             37.5053794280      -58.1397624159      -11.5726863352  W2        1282            0.0000000000
      3846      1282  TIP3      H2             38.8127594280      -58.7020424159      -11.0564763352  W2        1282            0.0000000000
      3847      1283  TIP3      OH2            37.1187394280      -58.1074424159      -15.2616663352  W2        1283            0.0000000000
      3848      1283  TIP3      H1             37.5578094280      -57.4963924159      -15.8533163352  W2        1283            0.0000000000
      3849      1283  TIP3      H2             36.4849794280      -57.5690324159      -14.7876663352  W2        1283            0.0000000000
      3850      1284  TIP3      OH2            42.8616594280      -57.9785424159      -11.2519663352  W2        1284            0.0000000000
      3851      1284  TIP3      H1             43.7359994280      -57.5901124159      -11.2815363352  W2        1284            0.0000000000
      3852      1284  TIP3      H2             42.7257394280      -58.1937624159      -10.3292463352  W2        1284            0.0000000000
      3853      1285  TIP3      OH2            48.4184994280      -57.9485624159       -9.6027963352  W2        1285            0.0000000000
      3854      1285  TIP3      H1             48.4946594280      -57.8534024159      -10.5521963352  W2        1285            0.0000000000
      3855      1285  TIP3      H2             48.1434194280      -58.8562724159       -9.4738863352  W2        1285            0.0000000000
      3856      1286  TIP3      OH2            49.7717594280      -57.9227824159      -13.9102963352  W2        1286            0.0000000000
      3857      1286  TIP3      H1             49.0688694280      -57.3078624159      -14.1201563352  W2        1286            0.0000000000
      3858      1286  TIP3      H2             49.3268994280      -58.7601124159      -13.7792063352  W2        1286            0.0000000000
      3859      1287  TIP3      OH2            37.0196894280      -42.1592224159      -14.3641563352  W2        1287            0.0000000000
      3860      1287  TIP3      H1             36.3346794280      -42.1973324159      -15.0316463352  W2        1287            0.0000000000
      3861      1287  TIP3      H2             37.0234094280      -41.2464624159      -14.0759463352  W2        1287            0.0000000000
      3862      1288  TIP3      OH2            38.9796494280      -56.1912924159      -16.8192563352  W2        1288            0.0000000000
      3863      1288  TIP3      H1             39.4709894280      -56.8210524159      -17.3467063352  W2        1288            0.0000000000
      3864      1288  TIP3      H2             39.6032794280      -55.8953524159      -16.1561363352  W2        1288            0.0000000000
      3865      1289  TIP3      OH2            44.0056594280      -55.8981424159      -14.3622063352  W2        1289            0.0000000000
      3866      1289  TIP3      H1             44.1837894280      -56.5448224159      -13.6793463352  W2        1289            0.0000000000
      3867      1289  TIP3      H2             43.9522794280      -55.0643724159      -13.8950963352  W2        1289            0.0000000000
      3868      1290  TIP3      OH2            45.8840394280      -40.9497324159      -15.9665363352  W2        1290            0.0000000000
      3869      1290  TIP3      H1             46.7500594280      -40.5829924159      -16.1447163352  W2        1290            0.0000000000
      3870      1290  TIP3      H2             45.6373194280      -41.3889324159      -16.7804563352  W2        1290            0.0000000000
      3871      1291  TIP3      OH2            52.5929994280      -41.3867024159      -13.2874263352  W2        1291            0.0000000000
      3872      1291  TIP3      H1             52.3987094280      -42.1344924159      -13.8524663352  W2        1291            0.0000000000
      3873      1291  TIP3      H2             52.5540094280      -40.6286924159      -13.8706363352  W2        1291            0.0000000000
      3874      1292  TIP3      OH2            38.2401994280      -57.3910624159       -1.5476563352  W2        1292            0.0000000000
      3875      1292  TIP3      H1             37.8740194280      -58.1568024159       -1.1051863352  W2        1292            0.0000000000
      3876      1292  TIP3      H2             39.1530494280      -57.3620424159       -1.2611463352  W2        1292            0.0000000000
      3877      1293  TIP3      OH2            40.2132794280      -58.0406224159       -0.0119463352  W2        1293            0.0000000000
      3878      1293  TIP3      H1             41.1116394280      -58.3146024159       -0.1966063352  W2        1293            0.0000000000
      3879      1293  TIP3      H2             39.8265894280      -58.7830224159        0.4523136648  W2        1293            0.0000000000
      3880      1294  TIP3      OH2            38.8378094280      -41.2391424159      -17.3389463352  W2        1294            0.0000000000
      3881      1294  TIP3      H1             38.5702694280      -40.9528524159      -16.4656363352  W2        1294            0.0000000000
      3882      1294  TIP3      H2             39.6090694280      -41.7852224159      -17.1866963352  W2        1294            0.0000000000
      3883      1295  TIP3      OH2            48.6345094280      -58.7080924159        0.1703336648  W2        1295            0.0000000000
      3884      1295  TIP3      H1             48.7112294280      -59.1340224159        1.0241036648  W2        1295            0.0000000000
      3885      1295  TIP3      H2             49.5281694280      -58.6946224159       -0.1723163352  W2        1295            0.0000000000
      3886      1296  TIP3      OH2            51.8106194280      -42.6354624159       -1.1372463352  W2        1296            0.0000000000
      3887      1296  TIP3      H1             51.0288094280      -42.8216624159       -1.6571863352  W2        1296            0.0000000000
      3888      1296  TIP3      H2             51.7386094280      -41.7060324159       -0.9199963352  W2        1296            0.0000000000
      3889      1297  TIP3      OH2            57.5182894280      -49.8797424159       -6.0947163352  W2        1297            0.0000000000
      3890      1297  TIP3      H1             57.5594994280      -50.5054124159       -5.3714763352  W2        1297            0.0000000000
      3891      1297  TIP3      H2             58.2210594280      -49.2558824159       -5.9126763352  W2        1297            0.0000000000
      3892      1298  TIP3      OH2            58.4415994280      -45.4298524159       -7.5598063352  W2        1298            0.0000000000
      3893      1298  TIP3      H1             58.0721194280      -46.2318024159       -7.9293763352  W2        1298            0.0000000000
      3894      1298  TIP3      H2             59.3827094280      -45.5983624159       -7.5134663352  W2        1298            0.0000000000
      3895      1299  TIP3      OH2            55.0516494280      -51.7695924159      -12.1669263352  W2        1299            0.0000000000
      3896      1299  TIP3      H1             54.6039894280      -50.9237224159      -12.1852763352  W2        1299            0.0000000000
      3897      1299  TIP3      H2             54.4907694280      -52.3491724159      -12.6824163352  W2        1299            0.0000000000
      3898      1300  TIP3      OH2            55.7622594280      -49.6076324159      -10.0411263352  W2        1300            0.0000000000
      3899      1300  TIP3      H1             55.9756094280      -50.3774724159       -9.5138263352  W2        1300            0.0000000000
      3900      1300  TIP3      H2             56.5000194280      -49.5179624159      -10.6443663352  W2        1300            0.0000000000
      3901      1301  TIP3      OH2            56.4549094280      -52.1693524159       -8.9195063352  W2        1301            0.0000000000
      3902      1301  TIP3      H1             57.1085694280      -52.7191824159       -8.4874963352  W2        1301            0.0000000000
      3903      1301  TIP3      H2             56.4788394280      -52.4434524159       -9.8363063352  W2        1301            0.0000000000
      3904      1302  TIP3      OH2            58.2386794280      -53.7559124159       -7.6553463352  W2        1302            0.0000000000
      3905      1302  TIP3      H1             58.8523094280      -53.1231524159       -7.2821063352  W2        1302            0.0000000000
      3906      1302  TIP3      H2             58.7507494280      -54.2284124159       -8.3116563352  W2        1302            0.0000000000
      3907      1303  TIP3      OH2            55.7426094280      -46.3374324159      -13.7511163352  W2        1303            0.0000000000
      3908      1303  TIP3      H1             55.4706994280      -46.1083324159      -14.6398263352  W2        1303            0.0000000000
      3909      1303  TIP3      H2             55.7881794280      -45.4995524159      -13.2905863352  W2        1303            0.0000000000
      3910      1304  TIP3      OH2            58.1556594280      -49.2991324159       -3.2411463352  W2        1304            0.0000000000
      3911      1304  TIP3      H1             58.2259794280      -48.6484524159       -2.5426463352  W2        1304            0.0000000000
      3912      1304  TIP3      H2             57.2648794280      -49.1963824159       -3.5760563352  W2        1304            0.0000000000
      3913      1305  TIP3      OH2            55.0723294280      -47.2327224159       -4.4161463352  W2        1305            0.0000000000
      3914      1305  TIP3      H1             54.5711694280      -47.2607824159       -5.2311763352  W2        1305            0.0000000000
      3915      1305  TIP3      H2             55.0776994280      -48.1384024159       -4.1064163352  W2        1305            0.0000000000
      3916      1306  TIP3      OH2            54.8225994280      -44.4523424159       -7.5321263352  W2        1306            0.0000000000
      3917      1306  TIP3      H1             55.7686594280      -44.5966424159       -7.5511763352  W2        1306            0.0000000000
      3918      1306  TIP3      H2             54.7102294280      -43.6680624159       -6.9950063352  W2        1306            0.0000000000
      3919      1307  TIP3      OH2            58.0668094280      -41.6513824159      -11.3866563352  W2        1307            0.0000000000
      3920      1307  TIP3      H1             58.2188494280      -41.9993424159      -10.5080063352  W2        1307            0.0000000000
      3921      1307  TIP3      H2             57.2158494280      -42.0076524159      -11.6419363352  W2        1307            0.0000000000
      3922      1308  TIP3      OH2            57.3213794280      -45.9091824159       -3.3728663352  W2        1308            0.0000000000
      3923      1308  TIP3      H1             57.5375094280      -46.2706224159       -2.5132863352  W2        1308            0.0000000000
      3924      1308  TIP3      H2             56.4658494280      -46.2838024159       -3.5825163352  W2        1308            0.0000000000
      3925      1309  TIP3      OH2            57.7812394280      -52.1533324159       -4.4152263352  W2        1309            0.0000000000
      3926      1309  TIP3      H1             57.7431794280      -51.7531724159       -3.5465163352  W2        1309            0.0000000000
      3927      1309  TIP3      H2             57.2903494280      -52.9700924159       -4.3249363352  W2        1309            0.0000000000
      3928      1310  TIP3      OH2            54.3893194280      -55.0371524159      -10.5647563352  W2        1310            0.0000000000
      3929      1310  TIP3      H1             55.0200894280      -55.0659424159       -9.8453663352  W2        1310            0.0000000000
      3930      1310  TIP3      H2             54.8387494280      -55.4622824159      -11.2951663352  W2        1310            0.0000000000
      3931      1311  TIP3      OH2            55.6635294280      -54.2909524159      -15.1407163352  W2        1311            0.0000000000
      3932      1311  TIP3      H1             56.1376994280      -53.6999624159      -15.7256263352  W2        1311            0.0000000000
      3933      1311  TIP3      H2             54.9461694280      -53.7606624159      -14.7937063352  W2        1311            0.0000000000
      3934      1312  TIP3      OH2            57.4379694280      -53.1962924159      -11.4572563352  W2        1312            0.0000000000
      3935      1312  TIP3      H1             56.5487694280      -53.0967424159      -11.7972963352  W2        1312            0.0000000000
      3936      1312  TIP3      H2             57.7344594280      -54.0379924159      -11.8034663352  W2        1312            0.0000000000
      3937      1313  TIP3      OH2            57.9003094280      -47.4446224159       -1.1350263352  W2        1313            0.0000000000
      3938      1313  TIP3      H1             58.6325494280      -47.1900324159       -0.5735763352  W2        1313            0.0000000000
      3939      1313  TIP3      H2             57.1201794280      -47.2400824159       -0.6194863352  W2        1313            0.0000000000
      3940      1314  TIP3      OH2            58.2252794280      -48.1412424159       -8.5285863352  W2        1314            0.0000000000
      3941      1314  TIP3      H1             58.9699994280      -48.1436724159       -9.1299363352  W2        1314            0.0000000000
      3942      1314  TIP3      H2             58.3029394280      -48.9648624159       -8.0470763352  W2        1314            0.0000000000
      3943      1315  TIP3      OH2            55.2332494280      -49.6805524159       -3.2137363352  W2        1315            0.0000000000
      3944      1315  TIP3      H1             55.4561094280      -50.0985924159       -2.3819863352  W2        1315            0.0000000000
      3945      1315  TIP3      H2             54.6312594280      -50.2930524159       -3.6364563352  W2        1315            0.0000000000
      3946      1316  TIP3      OH2            56.3549894280      -49.7610124159      -16.5371963352  W2        1316            0.0000000000
      3947      1316  TIP3      H1             56.9709794280      -49.1342924159      -16.1577163352  W2        1316            0.0000000000
      3948      1316  TIP3      H2             55.4932494280      -49.4450324159      -16.2655463352  W2        1316            0.0000000000
      3949      1317  TIP3      OH2            56.8671994280      -54.9272824159       -3.6555963352  W2        1317            0.0000000000
      3950      1317  TIP3      H1             55.9744294280      -54.5887424159       -3.7231963352  W2        1317            0.0000000000
      3951      1317  TIP3      H2             56.7684794280      -55.7826724159       -3.2375163352  W2        1317            0.0000000000
      3952      1318  TIP3      OH2            56.5183994280      -43.1228424159       -5.2206563352  W2        1318            0.0000000000
      3953      1318  TIP3      H1             56.7354294280      -44.0546024159       -5.2516863352  W2        1318            0.0000000000
      3954      1318  TIP3      H2             56.7647494280      -42.8483424159       -4.3373763352  W2        1318            0.0000000000
      3955      1319  TIP3      OH2            57.7700294280      -47.8486324159      -15.0446363352  W2        1319            0.0000000000
      3956      1319  TIP3      H1             57.0839594280      -47.4963824159      -14.4776663352  W2        1319            0.0000000000
      3957      1319  TIP3      H2             58.2928194280      -47.0856724159      -15.2912063352  W2        1319            0.0000000000
      3958      1320  TIP3      OH2            58.3859194280      -45.2347424159      -16.1478563352  W2        1320            0.0000000000
      3959      1320  TIP3      H1             58.9780694280      -44.5352624159      -15.8716163352  W2        1320            0.0000000000
      3960      1320  TIP3      H2             58.8452194280      -45.6677924159      -16.8673963352  W2        1320            0.0000000000
      3961      1321  TIP3      OH2            56.7018394280      -52.5704424159      -17.0319163352  W2        1321            0.0000000000
      3962      1321  TIP3      H1             56.6570994280      -51.6311324159      -16.8532163352  W2        1321            0.0000000000
      3963      1321  TIP3      H2             55.8141594280      -52.8059524159      -17.3017063352  W2        1321            0.0000000000
      3964      1322  TIP3      OH2            57.5100394280      -57.7887824159       -8.3588163352  W2        1322            0.0000000000
      3965      1322  TIP3      H1             57.2810194280      -57.7295324159       -9.2863163352  W2        1322            0.0000000000
      3966      1322  TIP3      H2             57.0673794280      -58.5802324159       -8.0524063352  W2        1322            0.0000000000
      3967      1323  TIP3      OH2            56.4403694280      -43.8480724159      -12.1982363352  W2        1323            0.0000000000
      3968      1323  TIP3      H1             55.6082294280      -43.3758024159      -12.1710963352  W2        1323            0.0000000000
      3969      1323  TIP3      H2             56.9861994280      -43.3383124159      -12.7969263352  W2        1323            0.0000000000
      3970      1324  TIP3      OH2            55.7287394280      -41.2357024159       -0.8684363352  W2        1324            0.0000000000
      3971      1324  TIP3      H1             56.2689594280      -41.4523024159       -0.1085163352  W2        1324            0.0000000000
      3972      1324  TIP3      H2             55.2475394280      -42.0411024159       -1.0581863352  W2        1324            0.0000000000
      3973      1325  TIP3      OH2            55.6356894280      -47.4252924159        0.0859936648  W2        1325            0.0000000000
      3974      1325  TIP3      H1             55.7797394280      -48.3272224159       -0.2003363352  W2        1325            0.0000000000
      3975      1325  TIP3      H2             54.8634294280      -47.1390824159       -0.4017763352  W2        1325            0.0000000000
      3976      1326  TIP3      OH2            56.4683394280      -50.2249624159       -0.4940763352  W2        1326            0.0000000000
      3977      1326  TIP3      H1             56.8764594280      -51.0823024159       -0.6150163352  W2        1326            0.0000000000
      3978      1326  TIP3      H2             56.2080994280      -50.2108324159        0.4269536648  W2        1326            0.0000000000
      3979      1327  TIP3      OH2            57.4136494280      -54.7425824159       -0.4214463352  W2        1327            0.0000000000
      3980      1327  TIP3      H1             57.6253894280      -55.4489724159       -1.0316963352  W2        1327            0.0000000000
      3981      1327  TIP3      H2             57.3023994280      -55.1799824159        0.4226736648  W2        1327            0.0000000000
      3982      1328  TIP3      OH2            55.6631394280      -45.5391724159      -16.7292563352  W2        1328            0.0000000000
      3983      1328  TIP3      H1             56.5770594280      -45.4602824159      -16.4558663352  W2        1328            0.0000000000
      3984      1328  TIP3      H2             55.6704494280      -46.2262124159      -17.3956963352  W2        1328            0.0000000000
      3985      1329  TIP3      OH2            54.3121994280      -40.1463224159      -11.6518663352  W2        1329            0.0000000000
      3986      1329  TIP3      H1             53.6649094280      -40.6081524159      -12.1847463352  W2        1329            0.0000000000
      3987      1329  TIP3      H2             54.6666594280      -40.8179924159      -11.0692463352  W2        1329            0.0000000000
      3988      1330  TIP3      OH2            55.1821194280      -42.0656224159       -9.8472463352  W2        1330            0.0000000000
      3989      1330  TIP3      H1             54.8477994280      -42.9458924159       -9.6752263352  W2        1330            0.0000000000
      3990      1330  TIP3      H2             55.4043594280      -41.7201224159       -8.9826863352  W2        1330            0.0000000000
      3991      1331  TIP3      OH2            55.2620694280      -48.9900824159       -7.3957563352  W2        1331            0.0000000000
      3992      1331  TIP3      H1             55.4463594280      -49.0719124159       -8.3314663352  W2        1331            0.0000000000
      3993      1331  TIP3      H2             56.1113594280      -49.1143824159       -6.9721163352  W2        1331            0.0000000000
      3994      1332  TIP3      OH2            54.8595494280      -53.7195824159       -1.2548763352  W2        1332            0.0000000000
      3995      1332  TIP3      H1             55.7790394280      -53.8417524159       -1.0185663352  W2        1332            0.0000000000
      3996      1332  TIP3      H2             54.4099994280      -54.4696124159       -0.8655263352  W2        1332            0.0000000000
      3997      1333  TIP3      OH2            56.0807994280      -55.4074224159       -8.3635863352  W2        1333            0.0000000000
      3998      1333  TIP3      H1             56.5259594280      -56.1991724159       -8.0616163352  W2        1333            0.0000000000
      3999      1333  TIP3      H2             56.5470994280      -54.6909024159       -7.9330263352  W2        1333            0.0000000000
      4000      1334  TIP3      OH2            54.3848294280      -52.4081224159       -7.2945663352  W2        1334            0.0000000000
      4001      1334  TIP3      H1             54.8768094280      -52.6290724159       -8.0853663352  W2        1334            0.0000000000
      4002      1334  TIP3      H2             54.7469194280      -51.5677824159       -7.0136163352  W2        1334            0.0000000000
      4003      1335  TIP3      OH2            54.6984794280      -56.1502124159      -13.2403263352  W2        1335            0.0000000000
      4004      1335  TIP3      H1             53.7733194280      -55.9415524159      -13.3697763352  W2        1335            0.0000000000
      4005      1335  TIP3      H2             55.1524694280      -55.6661324159      -13.9300963352  W2        1335            0.0000000000
      4006      1336  TIP3      OH2            54.6620194280      -57.4123124159       -4.8960763352  W2        1336            0.0000000000
      4007      1336  TIP3      H1             53.9970694280      -57.6582824159       -4.2529863352  W2        1336            0.0000000000
      4008      1336  TIP3      H2             54.2191494280      -56.7902724159       -5.4732763352  W2        1336            0.0000000000
      4009      1337  TIP3      OH2            56.8539494280      -44.2369024159       -0.7514963352  W2        1337            0.0000000000
      4010      1337  TIP3      H1             56.0331994280      -44.0622524159       -1.2120263352  W2        1337            0.0000000000
      4011      1337  TIP3      H2             56.6017294280      -44.3104324159        0.1689436648  W2        1337            0.0000000000
      4012      1338  TIP3      OH2            57.2099094280      -40.0063924159       -4.4455663352  W2        1338            0.0000000000
      4013      1338  TIP3      H1             56.4895494280      -39.5662924159       -4.8967963352  W2        1338            0.0000000000
      4014      1338  TIP3      H2             56.8443094280      -40.2569224159       -3.5971663352  W2        1338            0.0000000000
      4015      1339  TIP3      OH2            56.6247194280      -41.3831424159       -7.5353863352  W2        1339            0.0000000000
      4016      1339  TIP3      H1             56.6063194280      -41.8086324159       -6.6781563352  W2        1339            0.0000000000
      4017      1339  TIP3      H2             57.4295094280      -41.7016424159       -7.9441663352  W2        1339            0.0000000000
      4018      1340  TIP3      OH2            57.1383994280      -57.9052524159      -11.0652763352  W2        1340            0.0000000000
      4019      1340  TIP3      H1             56.3613794280      -58.1397624159      -11.5726863352  W2        1340            0.0000000000
      4020      1340  TIP3      H2             57.6687594280      -58.7020424159      -11.0564763352  W2        1340            0.0000000000
      4021      1341  TIP3      OH2            55.9747394280      -58.1074424159      -15.2616663352  W2        1341            0.0000000000
      4022      1341  TIP3      H1             56.4138094280      -57.4963924159      -15.8533163352  W2        1341            0.0000000000
      4023      1341  TIP3      H2             55.3409794280      -57.5690324159      -14.7876663352  W2        1341            0.0000000000
      4024      1342  TIP3      OH2            55.8756894280      -42.1592224159      -14.3641563352  W2        1342            0.0000000000
      4025      1342  TIP3      H1             55.1906794280      -42.1973324159      -15.0316463352  W2        1342            0.0000000000
      4026      1342  TIP3      H2             55.8794094280      -41.2464624159      -14.0759463352  W2        1342            0.0000000000
      4027      1343  TIP3      OH2            57.8356494280      -56.1912924159      -16.8192563352  W2        1343            0.0000000000
      4028      1343  TIP3      H1             58.3269894280      -56.8210524159      -17.3467063352  W2        1343            0.0000000000
      4029      1343  TIP3      H2             58.4592794280      -55.8953524159      -16.1561363352  W2        1343            0.0000000000
      4030      1344  TIP3      OH2            57.0961994280      -57.3910624159       -1.5476563352  W2        1344            0.0000000000
      4031      1344  TIP3      H1             56.7300194280      -58.1568024159       -1.1051863352  W2        1344            0.0000000000
      4032      1344  TIP3      H2             58.0090494280      -57.3620424159       -1.2611463352  W2        1344            0.0000000000
      4033      1345  TIP3      OH2            57.6938094280      -41.2391424159      -17.3389463352  W2        1345            0.0000000000
      4034      1345  TIP3      H1             57.4262694280      -40.9528524159      -16.4656363352  W2        1345            0.0000000000
      4035      1345  TIP3      H2             58.4650694280      -41.7852224159      -17.1866963352  W2        1345            0.0000000000
      4036      1346  TIP3      OH2           -46.9193405720      -29.8930224159      -11.1065263352  W2        1346            0.0000000000
      4037      1346  TIP3      H1            -46.8302305720      -28.9492024159      -11.2388163352  W2        1346            0.0000000000
      4038      1346  TIP3      H2            -47.5575805720      -30.1683824159      -11.7645863352  W2        1346            0.0000000000
      4039      1347  TIP3      OH2           -47.9862105720      -30.6379524159       -7.6877063352  W2        1347            0.0000000000
      4040      1347  TIP3      H1            -48.0244605720      -31.2843224159       -6.9827463352  W2        1347            0.0000000000
      4041      1347  TIP3      H2            -48.3085605720      -31.1045124159       -8.4588363352  W2        1347            0.0000000000
      4042      1348  TIP3      OH2           -55.6177105720      -31.0237424159       -6.0947163352  W2        1348            0.0000000000
      4043      1348  TIP3      H1            -55.5765005720      -31.6494124159       -5.3714763352  W2        1348            0.0000000000
      4044      1348  TIP3      H2            -54.9149405720      -30.3998824159       -5.9126763352  W2        1348            0.0000000000
      4045      1349  TIP3      OH2           -44.2801905720      -27.6989124159       -9.3861963352  W2        1349            0.0000000000
      4046      1349  TIP3      H1            -44.7209205720      -28.4193124159       -8.9356363352  W2        1349            0.0000000000
      4047      1349  TIP3      H2            -44.2932205720      -26.9781924159       -8.7564263352  W2        1349            0.0000000000
      4048      1350  TIP3      OH2           -54.6944005720      -26.5738524159       -7.5598063352  W2        1350            0.0000000000
      4049      1350  TIP3      H1            -55.0638805720      -27.3758024159       -7.9293763352  W2        1350            0.0000000000
      4050      1350  TIP3      H2            -53.7532905720      -26.7423624159       -7.5134663352  W2        1350            0.0000000000
      4051      1351  TIP3      OH2           -58.0843505720      -32.9135924159      -12.1669263352  W2        1351            0.0000000000
      4052      1351  TIP3      H1            -58.5320105720      -32.0677224159      -12.1852763352  W2        1351            0.0000000000
      4053      1351  TIP3      H2            -58.6452305720      -33.4931724159      -12.6824163352  W2        1351            0.0000000000
      4054      1352  TIP3      OH2           -57.3737405720      -30.7516324159      -10.0411263352  W2        1352            0.0000000000
      4055      1352  TIP3      H1            -57.1603905720      -31.5214724159       -9.5138263352  W2        1352            0.0000000000
      4056      1352  TIP3      H2            -56.6359805720      -30.6619624159      -10.6443663352  W2        1352            0.0000000000
      4057      1353  TIP3      OH2           -47.1686405720      -22.5947424159       -9.1741563352  W2        1353            0.0000000000
      4058      1353  TIP3      H1            -46.5490005720      -23.2712724159       -9.4472363352  W2        1353            0.0000000000
      4059      1353  TIP3      H2            -47.3769005720      -22.8126624159       -8.2656663352  W2        1353            0.0000000000
      4060      1354  TIP3      OH2           -49.5967705720      -28.2058124159       -7.2816063352  W2        1354            0.0000000000
      4061      1354  TIP3      H1            -49.2929805720      -28.8916724159       -7.8761963352  W2        1354            0.0000000000
      4062      1354  TIP3      H2            -48.8753705720      -28.0869424159       -6.6638063352  W2        1354            0.0000000000
      4063      1355  TIP3      OH2           -40.9337905720      -36.6042824159       -6.4209863352  W2        1355            0.0000000000
      4064      1355  TIP3      H1            -40.8845705720      -35.9941624159       -5.6850763352  W2        1355            0.0000000000
      4065      1355  TIP3      H2            -40.5082805720      -36.1431924159       -7.1438763352  W2        1355            0.0000000000
      4066      1356  TIP3      OH2           -46.4560705720      -33.8115724159       -6.9541263352  W2        1356            0.0000000000
      4067      1356  TIP3      H1            -46.3134805720      -34.7578724159       -6.9339663352  W2        1356            0.0000000000
      4068      1356  TIP3      H2            -46.5621705720      -33.6045924159       -7.8826363352  W2        1356            0.0000000000
      4069      1357  TIP3      OH2           -53.3012405720      -35.7099324159       -9.6816463352  W2        1357            0.0000000000
      4070      1357  TIP3      H1            -53.2581305720      -34.8500824159      -10.1000163352  W2        1357            0.0000000000
      4071      1357  TIP3      H2            -53.7588305720      -36.2624624159      -10.3153263352  W2        1357            0.0000000000
      4072      1358  TIP3      OH2           -45.5789705720      -35.5793724159      -11.2808163352  W2        1358            0.0000000000
      4073      1358  TIP3      H1            -44.9325405720      -35.9080524159      -10.6560563352  W2        1358            0.0000000000
      4074      1358  TIP3      H2            -45.0690305720      -35.0614724159      -11.9036763352  W2        1358            0.0000000000
      4075      1359  TIP3      OH2           -56.6810905720      -33.3133524159       -8.9195063352  W2        1359            0.0000000000
      4076      1359  TIP3      H1            -56.0274305720      -33.8631824159       -8.4874963352  W2        1359            0.0000000000
      4077      1359  TIP3      H2            -56.6571605720      -33.5874524159       -9.8363063352  W2        1359            0.0000000000
      4078      1360  TIP3      OH2           -51.5246405720      -31.7632224159       -9.7043563352  W2        1360            0.0000000000
      4079      1360  TIP3      H1            -50.9085405720      -32.2896824159       -9.1949563352  W2        1360            0.0000000000
      4080      1360  TIP3      H2            -52.1107605720      -32.4033524159      -10.1079963352  W2        1360            0.0000000000
      4081      1361  TIP3      OH2           -40.5423305720      -35.1263624159       -4.1850063352  W2        1361            0.0000000000
      4082      1361  TIP3      H1            -41.2308705720      -34.4682924159       -4.2803463352  W2        1361            0.0000000000
      4083      1361  TIP3      H2            -40.5268705720      -35.3235724159       -3.2484663352  W2        1361            0.0000000000
      4084      1362  TIP3      OH2           -54.4910505720      -36.7920924159       -5.6075663352  W2        1362            0.0000000000
      4085      1362  TIP3      H1            -54.7098805720      -36.2620324159       -6.3739663352  W2        1362            0.0000000000
      4086      1362  TIP3      H2            -55.1589605720      -36.5655424159       -4.9604263352  W2        1362            0.0000000000
      4087      1363  TIP3      OH2           -47.1220705720      -27.2919824159      -12.0636563352  W2        1363            0.0000000000
      4088      1363  TIP3      H1            -47.4175605720      -27.6147524159      -12.9149663352  W2        1363            0.0000000000
      4089      1363  TIP3      H2            -47.4462905720      -26.3923124159      -12.0223963352  W2        1363            0.0000000000
      4090      1364  TIP3      OH2           -51.9219105720      -29.1165224159       -5.3201963352  W2        1364            0.0000000000
      4091      1364  TIP3      H1            -52.6620005720      -28.5183724159       -5.2166763352  W2        1364            0.0000000000
      4092      1364  TIP3      H2            -51.2079605720      -28.5625624159       -5.6358363352  W2        1364            0.0000000000
      4093      1365  TIP3      OH2           -43.8151305720      -36.2884424159       -9.3002263352  W2        1365            0.0000000000
      4094      1365  TIP3      H1            -44.0303305720      -37.0541024159       -8.7676263352  W2        1365            0.0000000000
      4095      1365  TIP3      H2            -43.1593905720      -35.8159824159       -8.7873763352  W2        1365            0.0000000000
      4096      1366  TIP3      OH2           -54.8973205720      -34.8999124159       -7.6553463352  W2        1366            0.0000000000
      4097      1366  TIP3      H1            -54.2836905720      -34.2671524159       -7.2821063352  W2        1366            0.0000000000
      4098      1366  TIP3      H2            -54.3852505720      -35.3724124159       -8.3116563352  W2        1366            0.0000000000
      4099      1367  TIP3      OH2           -53.5144805720      -27.1522224159       -4.5330463352  W2        1367            0.0000000000
      4100      1367  TIP3      H1            -53.5197205720      -26.2728724159       -4.9111163352  W2        1367            0.0000000000
      4101      1367  TIP3      H2            -54.3680705720      -27.2358124159       -4.1080563352  W2        1367            0.0000000000
      4102      1368  TIP3      OH2           -57.3933905720      -27.4814324159      -13.7511163352  W2        1368            0.0000000000
      4103      1368  TIP3      H1            -57.6653005720      -27.2523324159      -14.6398263352  W2        1368            0.0000000000
      4104      1368  TIP3      H2            -57.3478205720      -26.6435524159      -13.2905863352  W2        1368            0.0000000000
      4105      1369  TIP3      OH2           -43.7684205720      -25.8598424159       -7.0382663352  W2        1369            0.0000000000
      4106      1369  TIP3      H1            -44.7100505720      -25.8014524159       -6.8765763352  W2        1369            0.0000000000
      4107      1369  TIP3      H2            -43.4918105720      -24.9537924159       -7.1752963352  W2        1369            0.0000000000
      4108      1370  TIP3      OH2           -43.4677205720      -37.5733124159       -5.6208763352  W2        1370            0.0000000000
      4109      1370  TIP3      H1            -44.2038005720      -36.9626024159       -5.6587463352  W2        1370            0.0000000000
      4110      1370  TIP3      H2            -42.7843205720      -37.1584124159       -6.1472363352  W2        1370            0.0000000000
      4111      1371  TIP3      OH2           -50.4645805720      -39.4865824159       -8.1550763352  W2        1371            0.0000000000
      4112      1371  TIP3      H1            -50.5821605720      -40.4349824159       -8.2092463352  W2        1371            0.0000000000
      4113      1371  TIP3      H2            -51.3195705720      -39.1539724159       -7.8819663352  W2        1371            0.0000000000
      4114      1372  TIP3      OH2           -45.5163005720      -24.0784924159      -10.4131063352  W2        1372            0.0000000000
      4115      1372  TIP3      H1            -45.0910705720      -24.7857024159      -10.8981463352  W2        1372            0.0000000000
      4116      1372  TIP3      H2            -45.1993005720      -23.2772224159      -10.8298863352  W2        1372            0.0000000000
      4117      1373  TIP3      OH2           -44.3566505720      -26.1776424159      -11.9044463352  W2        1373            0.0000000000
      4118      1373  TIP3      H1            -44.6141705720      -26.8676324159      -12.5158563352  W2        1373            0.0000000000
      4119      1373  TIP3      H2            -44.2855705720      -26.6205224159      -11.0588563352  W2        1373            0.0000000000
      4120      1374  TIP3      OH2           -42.6706305720      -27.6109724159       -3.4270963352  W2        1374            0.0000000000
      4121      1374  TIP3      H1            -42.5310005720      -28.2027224159       -4.1663963352  W2        1374            0.0000000000
      4122      1374  TIP3      H2            -42.5033505720      -26.7383824159       -3.7832163352  W2        1374            0.0000000000
      4123      1375  TIP3      OH2           -48.1980905720      -30.6490224159      -13.6544963352  W2        1375            0.0000000000
      4124      1375  TIP3      H1            -48.9095405720      -30.1140524159      -14.0064463352  W2        1375            0.0000000000
      4125      1375  TIP3      H2            -47.5071305720      -30.5938124159      -14.3146063352  W2        1375            0.0000000000
      4126      1376  TIP3      OH2           -48.1441705720      -32.1915924159      -16.6159963352  W2        1376            0.0000000000
      4127      1376  TIP3      H1            -47.4431805720      -32.1689024159      -15.9645963352  W2        1376            0.0000000000
      4128      1376  TIP3      H2            -47.8418805720      -32.8196224159      -17.2720663352  W2        1376            0.0000000000
      4129      1377  TIP3      OH2           -40.8287005720      -31.2711724159       -5.3610563352  W2        1377            0.0000000000
      4130      1377  TIP3      H1            -41.4812905720      -30.5766124159       -5.2719663352  W2        1377            0.0000000000
      4131      1377  TIP3      H2            -40.3636705720      -31.0610824159       -6.1708963352  W2        1377            0.0000000000
      4132      1378  TIP3      OH2           -44.7923205720      -30.4396924159      -12.7029063352  W2        1378            0.0000000000
      4133      1378  TIP3      H1            -45.5242205720      -30.2113224159      -12.1298463352  W2        1378            0.0000000000
      4134      1378  TIP3      H2            -44.3451005720      -31.1534224159      -12.2481563352  W2        1378            0.0000000000
      4135      1379  TIP3      OH2           -44.8949705720      -32.2654324159       -3.6352063352  W2        1379            0.0000000000
      4136      1379  TIP3      H1            -44.8150605720      -31.5019924159       -3.0633563352  W2        1379            0.0000000000
      4137      1379  TIP3      H2            -45.4962005720      -31.9861924159       -4.3256963352  W2        1379            0.0000000000
      4138      1380  TIP3      OH2           -53.1469505720      -29.8090724159      -10.8204063352  W2        1380            0.0000000000
      4139      1380  TIP3      H1            -53.4774305720      -30.1797324159      -11.6387063352  W2        1380            0.0000000000
      4140      1380  TIP3      H2            -52.5585405720      -30.4796724159      -10.4735763352  W2        1380            0.0000000000
      4141      1381  TIP3      OH2           -51.7802005720      -26.3810124159       -8.1391863352  W2        1381            0.0000000000
      4142      1381  TIP3      H1            -51.8750705720      -26.9597024159       -8.8957263352  W2        1381            0.0000000000
      4143      1381  TIP3      H2            -51.0508405720      -26.7524424159       -7.6429063352  W2        1381            0.0000000000
      4144      1382  TIP3      OH2           -52.7804005720      -31.0405124159       -7.1869063352  W2        1382            0.0000000000
      4145      1382  TIP3      H1            -52.2151505720      -30.9190924159       -7.9497863352  W2        1382            0.0000000000
      4146      1382  TIP3      H2            -52.4615105720      -30.4030124159       -6.5480563352  W2        1382            0.0000000000
      4147      1383  TIP3      OH2           -46.4711805720      -25.5373224159       -6.4528563352  W2        1383            0.0000000000
      4148      1383  TIP3      H1            -46.7115205720      -24.8750124159       -5.8049363352  W2        1383            0.0000000000
      4149      1383  TIP3      H2            -46.6693605720      -26.3718024159       -6.0278963352  W2        1383            0.0000000000
      4150      1384  TIP3      OH2           -51.9003305720      -26.6412424159       -2.4697163352  W2        1384            0.0000000000
      4151      1384  TIP3      H1            -52.2115805720      -25.8589224159       -2.0143963352  W2        1384            0.0000000000
      4152      1384  TIP3      H2            -52.5503105720      -26.7943324159       -3.1555163352  W2        1384            0.0000000000
      4153      1385  TIP3      OH2           -45.9213705720      -31.2774024159      -15.0177863352  W2        1385            0.0000000000
      4154      1385  TIP3      H1            -45.3418205720      -31.1273724159      -14.2708963352  W2        1385            0.0000000000
      4155      1385  TIP3      H2            -45.5073705720      -30.8066624159      -15.7411463352  W2        1385            0.0000000000
      4156      1386  TIP3      OH2           -54.9803405720      -30.4431324159       -3.2411463352  W2        1386            0.0000000000
      4157      1386  TIP3      H1            -54.9100205720      -29.7924524159       -2.5426463352  W2        1386            0.0000000000
      4158      1386  TIP3      H2            -55.8711205720      -30.3403824159       -3.5760563352  W2        1386            0.0000000000
      4159      1387  TIP3      OH2           -48.1948805720      -24.5405524159      -11.5824763352  W2        1387            0.0000000000
      4160      1387  TIP3      H1            -47.7211205720      -24.2449224159      -10.8050563352  W2        1387            0.0000000000
      4161      1387  TIP3      H2            -48.7579505720      -23.8023924159      -11.8155163352  W2        1387            0.0000000000
      4162      1388  TIP3      OH2           -53.6607405720      -24.5697424159       -1.7063363352  W2        1388            0.0000000000
      4163      1388  TIP3      H1            -53.6532105720      -24.7057724159       -2.6537863352  W2        1388            0.0000000000
      4164      1388  TIP3      H2            -54.5767005720      -24.6869324159       -1.4543363352  W2        1388            0.0000000000
      4165      1389  TIP3      OH2           -42.2225305720      -39.5273624159      -15.2048163352  W2        1389            0.0000000000
      4166      1389  TIP3      H1            -43.1224605720      -39.3884624159      -14.9097563352  W2        1389            0.0000000000
      4167      1389  TIP3      H2            -41.9706905720      -38.6959024159      -15.6066463352  W2        1389            0.0000000000
      4168      1390  TIP3      OH2           -54.1566805720      -30.7396424159      -13.2311263352  W2        1390            0.0000000000
      4169      1390  TIP3      H1            -54.4485505720      -29.9714724159      -13.7219963352  W2        1390            0.0000000000
      4170      1390  TIP3      H2            -54.8311605720      -31.3990224159      -13.3939863352  W2        1390            0.0000000000
      4171      1391  TIP3      OH2           -41.0333905720      -25.1611224159      -16.8284263352  W2        1391            0.0000000000
      4172      1391  TIP3      H1            -40.9600405720      -24.2221024159      -16.6578963352  W2        1391            0.0000000000
      4173      1391  TIP3      H2            -40.1278805720      -25.4662624159      -16.8846963352  W2        1391            0.0000000000
      4174      1392  TIP3      OH2           -58.0636705720      -28.3767224159       -4.4161463352  W2        1392            0.0000000000
      4175      1392  TIP3      H1            -58.5648305720      -28.4047824159       -5.2311763352  W2        1392            0.0000000000
      4176      1392  TIP3      H2            -58.0583005720      -29.2824024159       -4.1064163352  W2        1392            0.0000000000
      4177      1393  TIP3      OH2           -58.3134005720      -25.5963424159       -7.5321263352  W2        1393            0.0000000000
      4178      1393  TIP3      H1            -57.3673405720      -25.7406424159       -7.5511763352  W2        1393            0.0000000000
      4179      1393  TIP3      H2            -58.4257705720      -24.8120624159       -6.9950063352  W2        1393            0.0000000000
      4180      1394  TIP3      OH2           -40.1155505720      -24.9303724159       -1.8497563352  W2        1394            0.0000000000
      4181      1394  TIP3      H1            -40.1648705720      -25.8855624159       -1.8869963352  W2        1394            0.0000000000
      4182      1394  TIP3      H2            -40.9423205720      -24.6628424159       -1.4483763352  W2        1394            0.0000000000
      4183      1395  TIP3      OH2           -49.1371505720      -25.3564524159       -2.9736163352  W2        1395            0.0000000000
      4184      1395  TIP3      H1            -49.0496905720      -24.5299924159       -2.4987063352  W2        1395            0.0000000000
      4185      1395  TIP3      H2            -50.0006405720      -25.6860724159       -2.7246863352  W2        1395            0.0000000000
      4186      1396  TIP3      OH2           -48.7225705720      -21.5840824159      -13.1675563352  W2        1396            0.0000000000
      4187      1396  TIP3      H1            -48.7979705720      -21.7053624159      -14.1140363352  W2        1396            0.0000000000
      4188      1396  TIP3      H2            -48.6897005720      -20.6348124159      -13.0490963352  W2        1396            0.0000000000
      4189      1397  TIP3      OH2           -55.0691905720      -22.7953824159      -11.3866563352  W2        1397            0.0000000000
      4190      1397  TIP3      H1            -54.9171505720      -23.1433424159      -10.5080063352  W2        1397            0.0000000000
      4191      1397  TIP3      H2            -55.9201505720      -23.1516524159      -11.6419363352  W2        1397            0.0000000000
      4192      1398  TIP3      OH2           -45.6209705720      -22.4300624159      -16.1653163352  W2        1398            0.0000000000
      4193      1398  TIP3      H1            -45.2461305720      -23.1744524159      -16.6360563352  W2        1398            0.0000000000
      4194      1398  TIP3      H2            -45.6166005720      -22.7000024159      -15.2469863352  W2        1398            0.0000000000
      4195      1399  TIP3      OH2           -45.9521605720      -22.5043524159      -13.4160963352  W2        1399            0.0000000000
      4196      1399  TIP3      H1            -46.8871805720      -22.4041624159      -13.2373963352  W2        1399            0.0000000000
      4197      1399  TIP3      H2            -45.6719705720      -23.2137524159      -12.8377763352  W2        1399            0.0000000000
      4198      1400  TIP3      OH2           -42.9635705720      -33.4371224159       -1.3695363352  W2        1400            0.0000000000
      4199      1400  TIP3      H1            -43.3708905720      -32.9565624159       -2.0902063352  W2        1400            0.0000000000
      4200      1400  TIP3      H2            -42.9230005720      -34.3425224159       -1.6774563352  W2        1400            0.0000000000
      4201      1401  TIP3      OH2           -55.8146205720      -27.0531824159       -3.3728663352  W2        1401            0.0000000000
      4202      1401  TIP3      H1            -55.5984905720      -27.4146224159       -2.5132863352  W2        1401            0.0000000000
      4203      1401  TIP3      H2            -56.6701505720      -27.4278024159       -3.5825163352  W2        1401            0.0000000000
      4204      1402  TIP3      OH2           -53.1958205720      -38.5831324159       -7.3774463352  W2        1402            0.0000000000
      4205      1402  TIP3      H1            -54.0574505720      -38.6703124159       -7.7851563352  W2        1402            0.0000000000
      4206      1402  TIP3      H2            -53.2182505720      -37.7271224159       -6.9496863352  W2        1402            0.0000000000
      4207      1403  TIP3      OH2           -48.5330405720      -38.8610924159       -4.0027463352  W2        1403            0.0000000000
      4208      1403  TIP3      H1            -48.1127305720      -39.2763824159       -3.2496863352  W2        1403            0.0000000000
      4209      1403  TIP3      H2            -49.4660805720      -39.0397624159       -3.8855463352  W2        1403            0.0000000000
      4210      1404  TIP3      OH2           -45.2065505720      -35.1055724159       -3.1492963352  W2        1404            0.0000000000
      4211      1404  TIP3      H1            -45.7206005720      -35.2313524159       -2.3516963352  W2        1404            0.0000000000
      4212      1404  TIP3      H2            -45.3620805720      -34.1932624159       -3.3936763352  W2        1404            0.0000000000
      4213      1405  TIP3      OH2           -44.4440605720      -30.2445724159      -17.3879963352  W2        1405            0.0000000000
      4214      1405  TIP3      H1            -44.4019805720      -30.4671824159      -18.3179963352  W2        1405            0.0000000000
      4215      1405  TIP3      H2            -43.5948505720      -29.8458624159      -17.1980063352  W2        1405            0.0000000000
      4216      1406  TIP3      OH2           -48.8713105720      -36.3687524159      -16.7176663352  W2        1406            0.0000000000
      4217      1406  TIP3      H1            -49.1248305720      -36.3495924159      -15.7948563352  W2        1406            0.0000000000
      4218      1406  TIP3      H2            -49.1281005720      -37.2402124159      -17.0190463352  W2        1406            0.0000000000
      4219      1407  TIP3      OH2           -53.1048105720      -33.6176824159       -6.2824263352  W2        1407            0.0000000000
      4220      1407  TIP3      H1            -53.7466005720      -33.6579524159       -5.5734163352  W2        1407            0.0000000000
      4221      1407  TIP3      H2            -53.0676105720      -32.6912124159       -6.5201263352  W2        1407            0.0000000000
      4222      1408  TIP3      OH2           -53.1079005720      -33.3966724159      -11.3704263352  W2        1408            0.0000000000
      4223      1408  TIP3      H1            -54.0006105720      -33.7370624159      -11.4290463352  W2        1408            0.0000000000
      4224      1408  TIP3      H2            -52.6572405720      -33.7735824159      -12.1261063352  W2        1408            0.0000000000
      4225      1409  TIP3      OH2           -47.5723505720      -32.9806424159      -12.5533463352  W2        1409            0.0000000000
      4226      1409  TIP3      H1            -47.9813205720      -32.1657824159      -12.8448663352  W2        1409            0.0000000000
      4227      1409  TIP3      H2            -46.8517305720      -33.1206324159      -13.1676363352  W2        1409            0.0000000000
      4228      1410  TIP3      OH2           -48.4701905720      -32.8050024159       -1.0652763352  W2        1410            0.0000000000
      4229      1410  TIP3      H1            -49.0328105720      -33.5098424159       -0.7444963352  W2        1410            0.0000000000
      4230      1410  TIP3      H2            -47.6438505720      -32.9258124159       -0.5975163352  W2        1410            0.0000000000
      4231      1411  TIP3      OH2           -46.5675805720      -33.5346024159       -9.7393763352  W2        1411            0.0000000000
      4232      1411  TIP3      H1            -46.7631305720      -32.9289224159      -10.4543163352  W2        1411            0.0000000000
      4233      1411  TIP3      H2            -46.3863205720      -34.3680824159      -10.1737463352  W2        1411            0.0000000000
      4234      1412  TIP3      OH2           -55.3547605720      -33.2973324159       -4.4152263352  W2        1412            0.0000000000
      4235      1412  TIP3      H1            -55.3928205720      -32.8971724159       -3.5465163352  W2        1412            0.0000000000
      4236      1412  TIP3      H2            -55.8456505720      -34.1140924159       -4.3249363352  W2        1412            0.0000000000
      4237      1413  TIP3      OH2           -51.9890205720      -35.9231024159      -17.6166263352  W2        1413            0.0000000000
      4238      1413  TIP3      H1            -52.4199505720      -36.3680924159      -16.8868863352  W2        1413            0.0000000000
      4239      1413  TIP3      H2            -52.7071505720      -35.5514724159      -18.1288763352  W2        1413            0.0000000000
      4240      1414  TIP3      OH2           -58.7466805720      -36.1811524159      -10.5647563352  W2        1414            0.0000000000
      4241      1414  TIP3      H1            -58.1159105720      -36.2099424159       -9.8453663352  W2        1414            0.0000000000
      4242      1414  TIP3      H2            -58.2972505720      -36.6062824159      -11.2951663352  W2        1414            0.0000000000
      4243      1415  TIP3      OH2           -57.4724705720      -35.4349524159      -15.1407163352  W2        1415            0.0000000000
      4244      1415  TIP3      H1            -56.9983005720      -34.8439624159      -15.7256263352  W2        1415            0.0000000000
      4245      1415  TIP3      H2            -58.1898305720      -34.9046624159      -14.7937063352  W2        1415            0.0000000000
      4246      1416  TIP3      OH2           -47.3036605720      -31.8964724159       -5.0681363352  W2        1416            0.0000000000
      4247      1416  TIP3      H1            -46.9801805720      -32.5275024159       -5.7110863352  W2        1416            0.0000000000
      4248      1416  TIP3      H2            -47.7437305720      -32.4312524159       -4.4073963352  W2        1416            0.0000000000
      4249      1417  TIP3      OH2           -50.5263705720      -35.9689224159      -10.2840163352  W2        1417            0.0000000000
      4250      1417  TIP3      H1            -51.4372605720      -35.9122424159       -9.9954163352  W2        1417            0.0000000000
      4251      1417  TIP3      H2            -50.0210805720      -36.0293724159       -9.4732963352  W2        1417            0.0000000000
      4252      1418  TIP3      OH2           -55.6980305720      -34.3402924159      -11.4572563352  W2        1418            0.0000000000
      4253      1418  TIP3      H1            -56.5872305720      -34.2407424159      -11.7972963352  W2        1418            0.0000000000
      4254      1418  TIP3      H2            -55.4015405720      -35.1819924159      -11.8034663352  W2        1418            0.0000000000
      4255      1419  TIP3      OH2           -52.0448505720      -34.3400324159      -13.8007963352  W2        1419            0.0000000000
      4256      1419  TIP3      H1            -51.1133005720      -34.2110324159      -13.6224863352  W2        1419            0.0000000000
      4257      1419  TIP3      H2            -52.2598205720      -33.6706024159      -14.4503263352  W2        1419            0.0000000000
      4258      1420  TIP3      OH2           -46.1211805720      -36.7342924159       -7.0198363352  W2        1420            0.0000000000
      4259      1420  TIP3      H1            -46.7980205720      -36.6029824159       -6.3558663352  W2        1420            0.0000000000
      4260      1420  TIP3      H2            -46.6066905720      -36.8893424159       -7.8300663352  W2        1420            0.0000000000
      4261      1421  TIP3      OH2           -53.3708305720      -33.1458124159      -16.2341863352  W2        1421            0.0000000000
      4262      1421  TIP3      H1            -53.9133205720      -33.5254324159      -16.9254263352  W2        1421            0.0000000000
      4263      1421  TIP3      H2            -52.5373405720      -32.9513424159      -16.6627763352  W2        1421            0.0000000000
      4264      1422  TIP3      OH2           -42.8336705720      -21.0627524159       -0.7430763352  W2        1422            0.0000000000
      4265      1422  TIP3      H1            -42.6338005720      -20.6385624159       -1.5775463352  W2        1422            0.0000000000
      4266      1422  TIP3      H2            -42.1783005720      -20.7189324159       -0.1360363352  W2        1422            0.0000000000
      4267      1423  TIP3      OH2           -55.2356905720      -28.5886224159       -1.1350263352  W2        1423            0.0000000000
      4268      1423  TIP3      H1            -54.5034505720      -28.3340324159       -0.5735763352  W2        1423            0.0000000000
      4269      1423  TIP3      H2            -56.0158205720      -28.3840824159       -0.6194863352  W2        1423            0.0000000000
      4270      1424  TIP3      OH2           -49.2064005720      -33.1816224159       -8.3970563352  W2        1424            0.0000000000
      4271      1424  TIP3      H1            -48.6420605720      -33.7279624159       -8.9440963352  W2        1424            0.0000000000
      4272      1424  TIP3      H2            -49.3540605720      -33.7034324159       -7.6082963352  W2        1424            0.0000000000
      4273      1425  TIP3      OH2           -54.2044305720      -37.0450124159      -11.9785763352  W2        1425            0.0000000000
      4274      1425  TIP3      H1            -54.5214805720      -37.9474824159      -12.0140363352  W2        1425            0.0000000000
      4275      1425  TIP3      H2            -53.4230205720      -37.0432724159      -12.5314163352  W2        1425            0.0000000000
      4276      1426  TIP3      OH2           -50.5798105720      -34.7930124159       -5.9830163352  W2        1426            0.0000000000
      4277      1426  TIP3      H1            -51.4152805720      -34.3390624159       -5.8727763352  W2        1426            0.0000000000
      4278      1426  TIP3      H2            -50.0557505720      -34.5171624159       -5.2310263352  W2        1426            0.0000000000
      4279      1427  TIP3      OH2           -50.0355505720      -28.5802424159      -14.2983763352  W2        1427            0.0000000000
      4280      1427  TIP3      H1            -50.7804505720      -29.0877124159      -14.6205863352  W2        1427            0.0000000000
      4281      1427  TIP3      H2            -50.1698305720      -28.5314424159      -13.3518963352  W2        1427            0.0000000000
      4282      1428  TIP3      OH2           -42.8856605720      -29.4474224159       -5.5116163352  W2        1428            0.0000000000
      4283      1428  TIP3      H1            -42.2437805720      -28.9907924159       -6.0553963352  W2        1428            0.0000000000
      4284      1428  TIP3      H2            -43.7159705720      -29.3341824159       -5.9742063352  W2        1428            0.0000000000
      4285      1429  TIP3      OH2           -46.1378705720      -35.7662524159      -16.0991163352  W2        1429            0.0000000000
      4286      1429  TIP3      H1            -47.0764505720      -35.6546924159      -16.2502363352  W2        1429            0.0000000000
      4287      1429  TIP3      H2            -45.8406605720      -34.9095624159      -15.7925463352  W2        1429            0.0000000000
      4288      1430  TIP3      OH2           -48.5163405720      -28.3959124159       -3.0614663352  W2        1430            0.0000000000
      4289      1430  TIP3      H1            -48.8617305720      -28.7776724159       -2.2545063352  W2        1430            0.0000000000
      4290      1430  TIP3      H2            -48.7163305720      -27.4625524159       -2.9901763352  W2        1430            0.0000000000
      4291      1431  TIP3      OH2           -45.4195205720      -33.8989824159      -14.4383763352  W2        1431            0.0000000000
      4292      1431  TIP3      H1            -44.5276205720      -34.0364824159      -14.1192563352  W2        1431            0.0000000000
      4293      1431  TIP3      H2            -45.3631605720      -33.1083724159      -14.9750263352  W2        1431            0.0000000000
      4294      1432  TIP3      OH2           -54.9107205720      -29.2852424159       -8.5285863352  W2        1432            0.0000000000
      4295      1432  TIP3      H1            -54.1660005720      -29.2876724159       -9.1299363352  W2        1432            0.0000000000
      4296      1432  TIP3      H2            -54.8330605720      -30.1088624159       -8.0470763352  W2        1432            0.0000000000
      4297      1433  TIP3      OH2           -47.9101405720      -27.1218124159      -15.2729163352  W2        1433            0.0000000000
      4298      1433  TIP3      H1            -48.2053005720      -26.2950224159      -14.8914363352  W2        1433            0.0000000000
      4299      1433  TIP3      H2            -48.6131405720      -27.7411224159      -15.0767763352  W2        1433            0.0000000000
      4300      1434  TIP3      OH2           -57.9027505720      -30.8245524159       -3.2137363352  W2        1434            0.0000000000
      4301      1434  TIP3      H1            -57.6798905720      -31.2425924159       -2.3819863352  W2        1434            0.0000000000
      4302      1434  TIP3      H2            -58.5047405720      -31.4370524159       -3.6364563352  W2        1434            0.0000000000
      4303      1435  TIP3      OH2           -50.8862605720      -31.3075624159       -1.0007663352  W2        1435            0.0000000000
      4304      1435  TIP3      H1            -51.1821805720      -31.4732624159       -1.8958563352  W2        1435            0.0000000000
      4305      1435  TIP3      H2            -49.9547405720      -31.5275324159       -1.0113763352  W2        1435            0.0000000000
      4306      1436  TIP3      OH2           -46.2659805720      -25.9343624159       -3.1109663352  W2        1436            0.0000000000
      4307      1436  TIP3      H1            -47.1665505720      -25.7511024159       -3.3785763352  W2        1436            0.0000000000
      4308      1436  TIP3      H2            -46.2318705720      -25.6754324159       -2.1900863352  W2        1436            0.0000000000
      4309      1437  TIP3      OH2           -40.5346505720      -33.6895724159      -14.7437063352  W2        1437            0.0000000000
      4310      1437  TIP3      H1            -41.0890205720      -34.0857724159      -15.4159563352  W2        1437            0.0000000000
      4311      1437  TIP3      H2            -40.4342905720      -32.7790524159      -15.0213763352  W2        1437            0.0000000000
      4312      1438  TIP3      OH2           -40.5714505720      -27.8894024159       -1.9065563352  W2        1438            0.0000000000
      4313      1438  TIP3      H1            -41.4226005720      -27.6510224159       -2.2739163352  W2        1438            0.0000000000
      4314      1438  TIP3      H2            -39.9811105720      -27.9060824159       -2.6598463352  W2        1438            0.0000000000
      4315      1439  TIP3      OH2           -42.2394805720      -24.9035324159      -14.2784963352  W2        1439            0.0000000000
      4316      1439  TIP3      H1            -42.6123705720      -25.7291524159      -13.9694363352  W2        1439            0.0000000000
      4317      1439  TIP3      H2            -41.9621305720      -25.0865924159      -15.1761563352  W2        1439            0.0000000000
      4318      1440  TIP3      OH2           -45.0790905720      -30.0955824159       -7.2573063352  W2        1440            0.0000000000
      4319      1440  TIP3      H1            -46.0074005720      -30.3273924159       -7.2843763352  W2        1440            0.0000000000
      4320      1440  TIP3      H2            -44.6279805720      -30.8726024159       -7.5874263352  W2        1440            0.0000000000
      4321      1441  TIP3      OH2           -52.5357805720      -25.7674224159      -11.1244363352  W2        1441            0.0000000000
      4322      1441  TIP3      H1            -52.0085605720      -24.9939824159      -11.3245563352  W2        1441            0.0000000000
      4323      1441  TIP3      H2            -53.4159305720      -25.5425024159      -11.4260363352  W2        1441            0.0000000000
      4324      1442  TIP3      OH2           -56.7810105720      -30.9050124159      -16.5371963352  W2        1442            0.0000000000
      4325      1442  TIP3      H1            -56.1650205720      -30.2782924159      -16.1577163352  W2        1442            0.0000000000
      4326      1442  TIP3      H2            -57.6427505720      -30.5890324159      -16.2655463352  W2        1442            0.0000000000
      4327      1443  TIP3      OH2           -51.1085505720      -28.1044324159      -11.5480063352  W2        1443            0.0000000000
      4328      1443  TIP3      H1            -51.3495505720      -27.1789924159      -11.5064763352  W2        1443            0.0000000000
      4329      1443  TIP3      H2            -51.8491905720      -28.5633024159      -11.1516163352  W2        1443            0.0000000000
      4330      1444  TIP3      OH2           -50.5938905720      -23.9550724159       -5.2328963352  W2        1444            0.0000000000
      4331      1444  TIP3      H1            -50.2314205720      -23.1005124159       -5.4664563352  W2        1444            0.0000000000
      4332      1444  TIP3      H2            -50.0623705720      -24.2469124159       -4.4922663352  W2        1444            0.0000000000
      4333      1445  TIP3      OH2           -52.4254705720      -23.0826724159      -12.0027863352  W2        1445            0.0000000000
      4334      1445  TIP3      H1            -53.3754205720      -22.9769324159      -11.9514563352  W2        1445            0.0000000000
      4335      1445  TIP3      H2            -52.0736605720      -22.2619324159      -11.6580363352  W2        1445            0.0000000000
      4336      1446  TIP3      OH2           -47.0498105720      -27.8560024159       -5.5323363352  W2        1446            0.0000000000
      4337      1446  TIP3      H1            -47.4756805720      -28.0838324159       -4.7059363352  W2        1446            0.0000000000
      4338      1446  TIP3      H2            -46.4692305720      -28.5948224159       -5.7148063352  W2        1446            0.0000000000
      4339      1447  TIP3      OH2           -44.8469205720      -26.9269524159      -16.4584363352  W2        1447            0.0000000000
      4340      1447  TIP3      H1            -44.4936105720      -27.3069724159      -15.6540863352  W2        1447            0.0000000000
      4341      1447  TIP3      H2            -45.7955705720      -27.0204724159      -16.3715063352  W2        1447            0.0000000000
      4342      1448  TIP3      OH2           -44.3913905720      -23.3040524159       -3.0628563352  W2        1448            0.0000000000
      4343      1448  TIP3      H1            -44.9930705720      -23.8597624159       -3.5582263352  W2        1448            0.0000000000
      4344      1448  TIP3      H2            -44.1100205720      -22.6370724159       -3.6891163352  W2        1448            0.0000000000
      4345      1449  TIP3      OH2           -40.3434805720      -22.4477024159      -16.2574163352  W2        1449            0.0000000000
      4346      1449  TIP3      H1            -39.5996905720      -21.8616524159      -16.3972563352  W2        1449            0.0000000000
      4347      1449  TIP3      H2            -41.0376705720      -21.8791224159      -15.9241763352  W2        1449            0.0000000000
      4348      1450  TIP3      OH2           -56.2688005720      -36.0712824159       -3.6555963352  W2        1450            0.0000000000
      4349      1450  TIP3      H1            -57.1615705720      -35.7327424159       -3.7231963352  W2        1450            0.0000000000
      4350      1450  TIP3      H2            -56.3675205720      -36.9266724159       -3.2375163352  W2        1450            0.0000000000
      4351      1451  TIP3      OH2           -43.9809905720      -28.2547524159      -14.2316463352  W2        1451            0.0000000000
      4352      1451  TIP3      H1            -44.2582305720      -28.9828224159      -13.6755363352  W2        1451            0.0000000000
      4353      1451  TIP3      H2            -43.0536905720      -28.1355524159      -14.0263863352  W2        1451            0.0000000000
      4354      1452  TIP3      OH2           -56.6176005720      -24.2668424159       -5.2206563352  W2        1452            0.0000000000
      4355      1452  TIP3      H1            -56.4005705720      -25.1986024159       -5.2516863352  W2        1452            0.0000000000
      4356      1452  TIP3      H2            -56.3712505720      -23.9923424159       -4.3373763352  W2        1452            0.0000000000
      4357      1453  TIP3      OH2           -50.7561405720      -25.8153424159      -18.0114363352  W2        1453            0.0000000000
      4358      1453  TIP3      H1            -50.5171605720      -26.5635324159      -18.5585463352  W2        1453            0.0000000000
      4359      1453  TIP3      H2            -51.0250105720      -26.2031724159      -17.1786563352  W2        1453            0.0000000000
      4360      1454  TIP3      OH2           -51.8190805720      -26.2449624159      -15.5551763352  W2        1454            0.0000000000
      4361      1454  TIP3      H1            -51.6722805720      -26.7649824159      -14.7650863352  W2        1454            0.0000000000
      4362      1454  TIP3      H2            -51.8219105720      -25.3382024159      -15.2485863352  W2        1454            0.0000000000
      4363      1455  TIP3      OH2           -55.3659705720      -28.9926324159      -15.0446363352  W2        1455            0.0000000000
      4364      1455  TIP3      H1            -56.0520405720      -28.6403824159      -14.4776663352  W2        1455            0.0000000000
      4365      1455  TIP3      H2            -54.8431805720      -28.2296724159      -15.2912063352  W2        1455            0.0000000000
      4366      1456  TIP3      OH2           -47.5344605720      -36.3302524159       -4.7657363352  W2        1456            0.0000000000
      4367      1456  TIP3      H1            -46.8356705720      -36.2563824159       -4.1157663352  W2        1456            0.0000000000
      4368      1456  TIP3      H2            -47.9153205720      -37.1947524159       -4.6114463352  W2        1456            0.0000000000
      4369      1457  TIP3      OH2           -46.7499705720      -36.6780824159      -13.6685063352  W2        1457            0.0000000000
      4370      1457  TIP3      H1            -46.5301405720      -36.2065424159      -14.4719663352  W2        1457            0.0000000000
      4371      1457  TIP3      H2            -46.1915705720      -36.2838224159      -12.9984463352  W2        1457            0.0000000000
      4372      1458  TIP3      OH2           -49.0813605720      -24.5476024159      -14.8057563352  W2        1458            0.0000000000
      4373      1458  TIP3      H1            -49.8977505720      -24.0506324159      -14.7533263352  W2        1458            0.0000000000
      4374      1458  TIP3      H2            -48.5517305720      -24.0722524159      -15.4458763352  W2        1458            0.0000000000
      4375      1459  TIP3      OH2           -49.5499805720      -34.9502024159      -12.8336663352  W2        1459            0.0000000000
      4376      1459  TIP3      H1            -48.7377205720      -34.4458824159      -12.7874963352  W2        1459            0.0000000000
      4377      1459  TIP3      H2            -49.7946805720      -35.0952324159      -11.9197063352  W2        1459            0.0000000000
      4378      1460  TIP3      OH2           -49.0143405720      -33.9639324159       -3.6490063352  W2        1460            0.0000000000
      4379      1460  TIP3      H1            -48.8953105720      -33.3903924159       -2.8919663352  W2        1460            0.0000000000
      4380      1460  TIP3      H2            -48.3588805720      -34.6519924159       -3.5342263352  W2        1460            0.0000000000
      4381      1461  TIP3      OH2           -48.6663105720      -37.8689024159      -11.8955563352  W2        1461            0.0000000000
      4382      1461  TIP3      H1            -49.0129605720      -37.2518424159      -11.2511263352  W2        1461            0.0000000000
      4383      1461  TIP3      H2            -48.0076205720      -37.3683324159      -12.3770063352  W2        1461            0.0000000000
      4384      1462  TIP3      OH2           -51.7430505720      -23.5038824159      -14.8240663352  W2        1462            0.0000000000
      4385      1462  TIP3      H1            -51.5821805720      -22.7041324159      -15.3248063352  W2        1462            0.0000000000
      4386      1462  TIP3      H2            -51.9402705720      -23.1972824159      -13.9390063352  W2        1462            0.0000000000
      4387      1463  TIP3      OH2           -53.0086105720      -36.8059624159      -15.2083063352  W2        1463            0.0000000000
      4388      1463  TIP3      H1            -53.0921305720      -35.9176524159      -14.8616663352  W2        1463            0.0000000000
      4389      1463  TIP3      H2            -52.1185805720      -37.0712924159      -14.9766263352  W2        1463            0.0000000000
      4390      1464  TIP3      OH2           -42.8097605720      -36.0569024159       -2.8140363352  W2        1464            0.0000000000
      4391      1464  TIP3      H1            -43.7261805720      -35.7947324159       -2.9016663352  W2        1464            0.0000000000
      4392      1464  TIP3      H2            -42.4742605720      -36.0600024159       -3.7105063352  W2        1464            0.0000000000
      4393      1465  TIP3      OH2           -44.2076605720      -32.3068024159       -8.7183063352  W2        1465            0.0000000000
      4394      1465  TIP3      H1            -45.0052205720      -32.7217824159       -9.0468063352  W2        1465            0.0000000000
      4395      1465  TIP3      H2            -43.7625505720      -32.9974324159       -8.2272563352  W2        1465            0.0000000000
      4396      1466  TIP3      OH2           -54.7500805720      -26.3787424159      -16.1478563352  W2        1466            0.0000000000
      4397      1466  TIP3      H1            -54.1579305720      -25.6792624159      -15.8716163352  W2        1466            0.0000000000
      4398      1466  TIP3      H2            -54.2907805720      -26.8117924159      -16.8673963352  W2        1466            0.0000000000
      4399      1467  TIP3      OH2           -56.4341605720      -33.7144424159      -17.0319163352  W2        1467            0.0000000000
      4400      1467  TIP3      H1            -56.4789005720      -32.7751324159      -16.8532163352  W2        1467            0.0000000000
      4401      1467  TIP3      H2            -57.3218405720      -33.9499524159      -17.3017063352  W2        1467            0.0000000000
      4402      1468  TIP3      OH2           -43.1212005720      -23.0505524159       -7.0959563352  W2        1468            0.0000000000
      4403      1468  TIP3      H1            -43.2767705720      -22.3721124159       -7.7530263352  W2        1468            0.0000000000
      4404      1468  TIP3      H2            -42.1885605720      -22.9786224159       -6.8928963352  W2        1468            0.0000000000
      4405      1469  TIP3      OH2           -55.6259605720      -38.9327824159       -8.3588163352  W2        1469            0.0000000000
      4406      1469  TIP3      H1            -55.8549805720      -38.8735324159       -9.2863163352  W2        1469            0.0000000000
      4407      1469  TIP3      H2            -56.0686205720      -39.7242324159       -8.0524063352  W2        1469            0.0000000000
      4408      1470  TIP3      OH2           -56.6956305720      -24.9920724159      -12.1982363352  W2        1470            0.0000000000
      4409      1470  TIP3      H1            -57.5277705720      -24.5198024159      -12.1710963352  W2        1470            0.0000000000
      4410      1470  TIP3      H2            -56.1498005720      -24.4823124159      -12.7969263352  W2        1470            0.0000000000
      4411      1471  TIP3      OH2           -57.4072605720      -22.3797024159       -0.8684363352  W2        1471            0.0000000000
      4412      1471  TIP3      H1            -56.8670405720      -22.5963024159       -0.1085163352  W2        1471            0.0000000000
      4413      1471  TIP3      H2            -57.8884605720      -23.1851024159       -1.0581863352  W2        1471            0.0000000000
      4414      1472  TIP3      OH2           -52.8099205720      -23.4602624159        0.7519836648  W2        1472            0.0000000000
      4415      1472  TIP3      H1            -52.0422005720      -23.9191824159        1.0929036648  W2        1472            0.0000000000
      4416      1472  TIP3      H2            -52.8313005720      -23.6862824159       -0.1778963352  W2        1472            0.0000000000
      4417      1473  TIP3      OH2           -48.7179605720      -23.9522024159      -17.8728363352  W2        1473            0.0000000000
      4418      1473  TIP3      H1            -49.3618605720      -24.5833424159      -17.5514663352  W2        1473            0.0000000000
      4419      1473  TIP3      H2            -47.9561305720      -24.4834024159      -18.1044863352  W2        1473            0.0000000000
      4420      1474  TIP3      OH2           -46.2330505720      -25.0801524159       -0.5188663352  W2        1474            0.0000000000
      4421      1474  TIP3      H1            -46.5841005720      -25.9368524159       -0.2758263352  W2        1474            0.0000000000
      4422      1474  TIP3      H2            -45.5067305720      -24.9374824159        0.0880336648  W2        1474            0.0000000000
      4423      1475  TIP3      OH2           -44.1136705720      -24.1352124159      -17.6390363352  W2        1475            0.0000000000
      4424      1475  TIP3      H1            -43.8306305720      -24.9296924159      -17.1863463352  W2        1475            0.0000000000
      4425      1475  TIP3      H2            -43.3738805720      -23.9021124159      -18.1999263352  W2        1475            0.0000000000
      4426      1476  TIP3      OH2           -57.5003105720      -28.5692924159        0.0859936648  W2        1476            0.0000000000
      4427      1476  TIP3      H1            -57.3562605720      -29.4712224159       -0.2003363352  W2        1476            0.0000000000
      4428      1476  TIP3      H2            -58.2725705720      -28.2830824159       -0.4017763352  W2        1476            0.0000000000
      4429      1477  TIP3      OH2           -53.1589405720      -28.2257224159      -17.7815463352  W2        1477            0.0000000000
      4430      1477  TIP3      H1            -53.0945305720      -29.0197624159      -17.2509063352  W2        1477            0.0000000000
      4431      1477  TIP3      H2            -52.5060205720      -28.3444424159      -18.4713463352  W2        1477            0.0000000000
      4432      1478  TIP3      OH2           -50.8447005720      -28.5994824159       -0.4813663352  W2        1478            0.0000000000
      4433      1478  TIP3      H1            -51.1733205720      -28.3286724159       -1.3386263352  W2        1478            0.0000000000
      4434      1478  TIP3      H2            -50.6928805720      -29.5405024159       -0.5688663352  W2        1478            0.0000000000
      4435      1479  TIP3      OH2           -47.8066005720      -27.1785524159      -18.0457463352  W2        1479            0.0000000000
      4436      1479  TIP3      H1            -48.0751905720      -26.9983424159      -17.1448563352  W2        1479            0.0000000000
      4437      1479  TIP3      H2            -48.0130405720      -28.1039324159      -18.1771663352  W2        1479            0.0000000000
      4438      1480  TIP3      OH2           -45.1101805720      -28.6837524159       -3.0981363352  W2        1480            0.0000000000
      4439      1480  TIP3      H1            -44.3647005720      -28.0953824159       -3.2177363352  W2        1480            0.0000000000
      4440      1480  TIP3      H2            -45.8675005720      -28.1017824159       -3.0348263352  W2        1480            0.0000000000
      4441      1481  TIP3      OH2           -56.6676605720      -31.3689624159       -0.4940763352  W2        1481            0.0000000000
      4442      1481  TIP3      H1            -56.2595405720      -32.2263024159       -0.6150163352  W2        1481            0.0000000000
      4443      1481  TIP3      H2            -56.9279005720      -31.3548324159        0.4269536648  W2        1481            0.0000000000
      4444      1482  TIP3      OH2           -52.0095605720      -30.2531024159      -15.4757463352  W2        1482            0.0000000000
      4445      1482  TIP3      H1            -52.4693605720      -30.7372724159      -14.7898963352  W2        1482            0.0000000000
      4446      1482  TIP3      H2            -51.7546905720      -30.9215624159      -16.1116963352  W2        1482            0.0000000000
      4447      1483  TIP3      OH2           -52.7206305720      -32.3603924159       -3.1197863352  W2        1483            0.0000000000
      4448      1483  TIP3      H1            -53.3390205720      -31.6857324159       -2.8393163352  W2        1483            0.0000000000
      4449      1483  TIP3      H2            -52.3765105720      -32.0390024159       -3.9531663352  W2        1483            0.0000000000
      4450      1484  TIP3      OH2           -50.9385205720      -32.0099224159      -17.2134263352  W2        1484            0.0000000000
      4451      1484  TIP3      H1            -51.1190205720      -32.1648024159      -18.1405963352  W2        1484            0.0000000000
      4452      1484  TIP3      H2            -49.9884705720      -31.9020524159      -17.1686363352  W2        1484            0.0000000000
      4453      1485  TIP3      OH2           -47.7008105720      -29.8888624159        0.1576936648  W2        1485            0.0000000000
      4454      1485  TIP3      H1            -46.7476905720      -29.8049524159        0.1302936648  W2        1485            0.0000000000
      4455      1485  TIP3      H2            -47.8613505720      -30.6006824159        0.7771836648  W2        1485            0.0000000000
      4456      1486  TIP3      OH2           -41.5486905720      -29.6555024159      -17.7676163352  W2        1486            0.0000000000
      4457      1486  TIP3      H1            -41.8222105720      -30.0799524159      -18.5807863352  W2        1486            0.0000000000
      4458      1486  TIP3      H2            -41.5092805720      -28.7240524159      -17.9845763352  W2        1486            0.0000000000
      4459      1487  TIP3      OH2           -52.3812605720      -35.0053124159       -2.0374763352  W2        1487            0.0000000000
      4460      1487  TIP3      H1            -52.2311705720      -35.7341824159       -2.6395063352  W2        1487            0.0000000000
      4461      1487  TIP3      H2            -52.3790205720      -34.2281424159       -2.5962563352  W2        1487            0.0000000000
      4462      1488  TIP3      OH2           -51.9686905720      -36.6357324159       -4.5447363352  W2        1488            0.0000000000
      4463      1488  TIP3      H1            -51.4329405720      -36.1840624159       -5.1968063352  W2        1488            0.0000000000
      4464      1488  TIP3      H2            -52.8207305720      -36.7437524159       -4.9673263352  W2        1488            0.0000000000
      4465      1489  TIP3      OH2           -50.3868505720      -31.1961124159       -4.3052163352  W2        1489            0.0000000000
      4466      1489  TIP3      H1            -49.6363705720      -31.3523624159       -4.8784363352  W2        1489            0.0000000000
      4467      1489  TIP3      H2            -50.7260205720      -30.3444524159       -4.5806663352  W2        1489            0.0000000000
      4468      1490  TIP3      OH2           -45.9712305720      -33.3809324159        0.7233136648  W2        1490            0.0000000000
      4469      1490  TIP3      H1            -45.7791005720      -34.3119924159        0.6117636648  W2        1490            0.0000000000
      4470      1490  TIP3      H2            -45.1136005720      -32.9559824159        0.7128536648  W2        1490            0.0000000000
      4471      1491  TIP3      OH2           -44.6545105720      -30.5924124159       -1.1994163352  W2        1491            0.0000000000
      4472      1491  TIP3      H1            -44.9360105720      -29.8829524159       -1.7770363352  W2        1491            0.0000000000
      4473      1491  TIP3      H2            -43.7120805720      -30.6651124159       -1.3502963352  W2        1491            0.0000000000
      4474      1492  TIP3      OH2           -53.9026305720      -33.8069624159       -0.1259163352  W2        1492            0.0000000000
      4475      1492  TIP3      H1            -54.6697305720      -34.3394824159       -0.3361563352  W2        1492            0.0000000000
      4476      1492  TIP3      H2            -53.2237305720      -34.1169224159       -0.7252863352  W2        1492            0.0000000000
      4477      1493  TIP3      OH2           -51.1631405720      -39.1791624159       -4.1133763352  W2        1493            0.0000000000
      4478      1493  TIP3      H1            -51.2611805720      -38.2328424159       -4.2187563352  W2        1493            0.0000000000
      4479      1493  TIP3      H2            -51.9055205720      -39.5517824159       -4.5890263352  W2        1493            0.0000000000
      4480      1494  TIP3      OH2           -49.8990905720      -34.8576224159       -0.5495363352  W2        1494            0.0000000000
      4481      1494  TIP3      H1            -50.1345505720      -35.0769524159        0.3519536648  W2        1494            0.0000000000
      4482      1494  TIP3      H2            -50.6824005720      -35.0645024159       -1.0592863352  W2        1494            0.0000000000
      4483      1495  TIP3      OH2           -47.1834305720      -35.7302724159       -1.4741863352  W2        1495            0.0000000000
      4484      1495  TIP3      H1            -48.1308905720      -35.6983024159       -1.3418563352  W2        1495            0.0000000000
      4485      1495  TIP3      H2            -46.8707605720      -36.3555624159       -0.8203663352  W2        1495            0.0000000000
      4486      1496  TIP3      OH2           -45.5492805720      -37.0961624159        0.5310036648  W2        1496            0.0000000000
      4487      1496  TIP3      H1            -45.6461005720      -38.0484324159        0.5251936648  W2        1496            0.0000000000
      4488      1496  TIP3      H2            -45.8709705720      -36.8274824159        1.3915536648  W2        1496            0.0000000000
      4489      1497  TIP3      OH2           -55.7223505720      -35.8865824159       -0.4214463352  W2        1497            0.0000000000
      4490      1497  TIP3      H1            -55.5106105720      -36.5929724159       -1.0316963352  W2        1497            0.0000000000
      4491      1497  TIP3      H2            -55.8336005720      -36.3239824159        0.4226736648  W2        1497            0.0000000000
      4492      1498  TIP3      OH2           -50.9413305720      -39.8854224159       -1.4420963352  W2        1498            0.0000000000
      4493      1498  TIP3      H1            -50.2294905720      -40.5252024159       -1.4561863352  W2        1498            0.0000000000
      4494      1498  TIP3      H2            -51.0422905720      -39.6185924159       -2.3557863352  W2        1498            0.0000000000
      4495      1499  TIP3      OH2           -50.5875805720      -38.2025824159        0.6115336648  W2        1499            0.0000000000
      4496      1499  TIP3      H1            -50.7193605720      -38.6782024159       -0.2086163352  W2        1499            0.0000000000
      4497      1499  TIP3      H2            -51.1868405720      -37.4582224159        0.5562436648  W2        1499            0.0000000000
      4498      1500  TIP3      OH2           -51.0413505720      -21.3195524159      -16.2120663352  W2        1500            0.0000000000
      4499      1500  TIP3      H1            -50.1082805720      -21.1616824159      -16.0682263352  W2        1500            0.0000000000
      4500      1500  TIP3      H2            -51.3054705720      -20.6442524159      -16.8369163352  W2        1500            0.0000000000
      4501      1501  TIP3      OH2           -57.4728605720      -26.6831724159      -16.7292563352  W2        1501            0.0000000000
      4502      1501  TIP3      H1            -56.5589405720      -26.6042824159      -16.4558663352  W2        1501            0.0000000000
      4503      1501  TIP3      H2            -57.4655505720      -27.3702124159      -17.3956963352  W2        1501            0.0000000000
      4504      1502  TIP3      OH2           -58.8238005720      -21.2903224159      -11.6518663352  W2        1502            0.0000000000
      4505      1502  TIP3      H1            -59.4710905720      -21.7521524159      -12.1847463352  W2        1502            0.0000000000
      4506      1502  TIP3      H2            -58.4693405720      -21.9619924159      -11.0692463352  W2        1502            0.0000000000
      4507      1503  TIP3      OH2           -57.9538805720      -23.2096224159       -9.8472463352  W2        1503            0.0000000000
      4508      1503  TIP3      H1            -58.2882005720      -24.0898924159       -9.6752263352  W2        1503            0.0000000000
      4509      1503  TIP3      H2            -57.7316405720      -22.8641224159       -8.9826863352  W2        1503            0.0000000000
      4510      1504  TIP3      OH2           -40.4054005720      -22.3999824159       -6.8667663352  W2        1504            0.0000000000
      4511      1504  TIP3      H1            -40.4267305720      -22.2151424159       -5.9278263352  W2        1504            0.0000000000
      4512      1504  TIP3      H2            -39.7147805720      -21.8315824159       -7.2076263352  W2        1504            0.0000000000
      4513      1505  TIP3      OH2           -40.8421105720      -22.8328724159       -3.9448563352  W2        1505            0.0000000000
      4514      1505  TIP3      H1            -41.3292405720      -23.5684624159       -4.3161163352  W2        1505            0.0000000000
      4515      1505  TIP3      H2            -40.2928405720      -23.2264824159       -3.2669163352  W2        1505            0.0000000000
      4516      1506  TIP3      OH2           -42.3913805720      -27.0430624159        0.6931736648  W2        1506            0.0000000000
      4517      1506  TIP3      H1            -43.2572705720      -27.1480924159        1.0874036648  W2        1506            0.0000000000
      4518      1506  TIP3      H2            -42.0147905720      -26.2847324159        1.1396436648  W2        1506            0.0000000000
      4519      1507  TIP3      OH2           -41.0904105720      -28.7866924159      -13.7925763352  W2        1507            0.0000000000
      4520      1507  TIP3      H1            -40.2402705720      -28.3656024159      -13.6654163352  W2        1507            0.0000000000
      4521      1507  TIP3      H2            -41.0849005720      -29.5266824159      -13.1854363352  W2        1507            0.0000000000
      4522      1508  TIP3      OH2           -40.6958505720      -30.7329524159      -11.9690063352  W2        1508            0.0000000000
      4523      1508  TIP3      H1            -41.4223905720      -31.2126924159      -11.5712463352  W2        1508            0.0000000000
      4524      1508  TIP3      H2            -40.1145205720      -30.5274824159      -11.2368463352  W2        1508            0.0000000000
      4525      1509  TIP3      OH2           -40.9367305720      -27.9482024159       -7.0212463352  W2        1509            0.0000000000
      4526      1509  TIP3      H1            -40.1033105720      -28.3262024159       -7.3018863352  W2        1509            0.0000000000
      4527      1509  TIP3      H2            -40.8247005720      -27.0050824159       -7.1403363352  W2        1509            0.0000000000
      4528      1510  TIP3      OH2           -42.4505005720      -25.0704524159       -4.7144063352  W2        1510            0.0000000000
      4529      1510  TIP3      H1            -43.0979705720      -24.7453024159       -4.0888863352  W2        1510            0.0000000000
      4530      1510  TIP3      H2            -42.9681005720      -25.5106824159       -5.3885763352  W2        1510            0.0000000000
      4531      1511  TIP3      OH2           -40.4275405720      -30.8321024159      -15.5778763352  W2        1511            0.0000000000
      4532      1511  TIP3      H1            -40.9494305720      -30.4756924159      -16.2967863352  W2        1511            0.0000000000
      4533      1511  TIP3      H2            -40.4606205720      -30.1573224159      -14.8997863352  W2        1511            0.0000000000
      4534      1512  TIP3      OH2           -42.0786405720      -33.5925424159      -17.0271663352  W2        1512            0.0000000000
      4535      1512  TIP3      H1            -41.9822005720      -32.9258424159      -17.7071963352  W2        1512            0.0000000000
      4536      1512  TIP3      H2            -42.2186805720      -34.4079124159      -17.5086163352  W2        1512            0.0000000000
      4537      1513  TIP3      OH2           -42.9091705720      -32.2123024159      -11.4061363352  W2        1513            0.0000000000
      4538      1513  TIP3      H1            -43.0592905720      -33.1574424159      -11.4263563352  W2        1513            0.0000000000
      4539      1513  TIP3      H2            -43.2627205720      -31.9311624159      -10.5622263352  W2        1513            0.0000000000
      4540      1514  TIP3      OH2           -57.8739305720      -30.1340824159       -7.3957563352  W2        1514            0.0000000000
      4541      1514  TIP3      H1            -57.6896405720      -30.2159124159       -8.3314663352  W2        1514            0.0000000000
      4542      1514  TIP3      H2            -57.0246405720      -30.2583824159       -6.9721163352  W2        1514            0.0000000000
      4543      1515  TIP3      OH2           -42.0528805720      -30.2419724159       -1.7673063352  W2        1515            0.0000000000
      4544      1515  TIP3      H1            -41.4701505720      -30.9767424159       -1.5755863352  W2        1515            0.0000000000
      4545      1515  TIP3      H2            -41.4889505720      -29.4699424159       -1.7207263352  W2        1515            0.0000000000
      4546      1516  TIP3      OH2           -40.5561705720      -32.3393924159       -1.0827663352  W2        1516            0.0000000000
      4547      1516  TIP3      H1            -41.4195005720      -32.7181824159       -1.2482963352  W2        1516            0.0000000000
      4548      1516  TIP3      H2            -39.9518005720      -33.0779124159       -1.1571863352  W2        1516            0.0000000000
      4549      1517  TIP3      OH2           -42.8312605720      -36.1845624159      -17.9096163352  W2        1517            0.0000000000
      4550      1517  TIP3      H1            -42.2206805720      -36.5558824159      -17.2727963352  W2        1517            0.0000000000
      4551      1517  TIP3      H2            -43.6681105720      -36.6058724159      -17.7136163352  W2        1517            0.0000000000
      4552      1518  TIP3      OH2           -43.1986905720      -34.6297224159      -12.9436263352  W2        1518            0.0000000000
      4553      1518  TIP3      H1            -42.9189805720      -35.5366824159      -12.8194563352  W2        1518            0.0000000000
      4554      1518  TIP3      H2            -42.4395205720      -34.1955724159      -13.3327063352  W2        1518            0.0000000000
      4555      1519  TIP3      OH2           -42.5868605720      -34.0479824159       -7.5077363352  W2        1519            0.0000000000
      4556      1519  TIP3      H1            -41.6540605720      -33.8359924159       -7.5421363352  W2        1519            0.0000000000
      4557      1519  TIP3      H2            -42.8221105720      -33.9467724159       -6.5854363352  W2        1519            0.0000000000
      4558      1520  TIP3      OH2           -42.5576705720      -33.3114524159       -4.7317963352  W2        1520            0.0000000000
      4559      1520  TIP3      H1            -43.4005405720      -33.0434124159       -4.3658163352  W2        1520            0.0000000000
      4560      1520  TIP3      H2            -42.1152405720      -32.4892624159       -4.9426863352  W2        1520            0.0000000000
      4561      1521  TIP3      OH2           -58.2764505720      -34.8635824159       -1.2548763352  W2        1521            0.0000000000
      4562      1521  TIP3      H1            -57.3569605720      -34.9857524159       -1.0185663352  W2        1521            0.0000000000
      4563      1521  TIP3      H2            -58.7260005720      -35.6136124159       -0.8655263352  W2        1521            0.0000000000
      4564      1522  TIP3      OH2           -40.2745105720      -39.3314324159        0.6217036648  W2        1522            0.0000000000
      4565      1522  TIP3      H1            -39.9248105720      -39.9850824159        0.0161736648  W2        1522            0.0000000000
      4566      1522  TIP3      H2            -40.1275605720      -38.4940224159        0.1819636648  W2        1522            0.0000000000
      4567      1523  TIP3      OH2           -42.5852105720      -37.3667924159      -12.8954263352  W2        1523            0.0000000000
      4568      1523  TIP3      H1            -42.4027105720      -37.8156424159      -12.0699263352  W2        1523            0.0000000000
      4569      1523  TIP3      H2            -43.1849205720      -37.9513524159      -13.3589663352  W2        1523            0.0000000000
      4570      1524  TIP3      OH2           -57.0552005720      -36.5514224159       -8.3635863352  W2        1524            0.0000000000
      4571      1524  TIP3      H1            -56.6100405720      -37.3431724159       -8.0616163352  W2        1524            0.0000000000
      4572      1524  TIP3      H2            -56.5889005720      -35.8349024159       -7.9330263352  W2        1524            0.0000000000
      4573      1525  TIP3      OH2           -58.7511705720      -33.5521224159       -7.2945663352  W2        1525            0.0000000000
      4574      1525  TIP3      H1            -58.2591905720      -33.7730724159       -8.0853663352  W2        1525            0.0000000000
      4575      1525  TIP3      H2            -58.3890805720      -32.7117824159       -7.0136163352  W2        1525            0.0000000000
      4576      1526  TIP3      OH2           -40.7547905720      -37.2219724159       -1.0291663352  W2        1526            0.0000000000
      4577      1526  TIP3      H1            -41.6722205720      -36.9512624159       -1.0648163352  W2        1526            0.0000000000
      4578      1526  TIP3      H2            -40.6318505720      -37.7571324159       -1.8131963352  W2        1526            0.0000000000
      4579      1527  TIP3      OH2           -40.7185905720      -37.2989824159      -16.3673963352  W2        1527            0.0000000000
      4580      1527  TIP3      H1            -40.3063305720      -38.0204124159      -16.8425963352  W2        1527            0.0000000000
      4581      1527  TIP3      H2            -40.0369405720      -36.6295224159      -16.3089663352  W2        1527            0.0000000000
      4582      1528  TIP3      OH2           -58.4375205720      -37.2942124159      -13.2403263352  W2        1528            0.0000000000
      4583      1528  TIP3      H1            -59.3626805720      -37.0855524159      -13.3697763352  W2        1528            0.0000000000
      4584      1528  TIP3      H2            -57.9835305720      -36.8101324159      -13.9300963352  W2        1528            0.0000000000
      4585      1529  TIP3      OH2           -43.6668005720      -22.3100424159      -11.2945863352  W2        1529            0.0000000000
      4586      1529  TIP3      H1            -43.0145105720      -22.6578324159      -11.9026763352  W2        1529            0.0000000000
      4587      1529  TIP3      H2            -43.1564205720      -21.8217224159      -10.6486163352  W2        1529            0.0000000000
      4588      1530  TIP3      OH2           -58.4739805720      -38.5563124159       -4.8960763352  W2        1530            0.0000000000
      4589      1530  TIP3      H1            -59.1389305720      -38.8022824159       -4.2529863352  W2        1530            0.0000000000
      4590      1530  TIP3      H2            -58.9168505720      -37.9342724159       -5.4732763352  W2        1530            0.0000000000
      4591      1531  TIP3      OH2           -56.2820505720      -25.3809024159       -0.7514963352  W2        1531            0.0000000000
      4592      1531  TIP3      H1            -57.1028005720      -25.2062524159       -1.2120263352  W2        1531            0.0000000000
      4593      1531  TIP3      H2            -56.5342705720      -25.4544324159        0.1689436648  W2        1531            0.0000000000
      4594      1532  TIP3      OH2           -53.3277605720      -24.4067824159       -4.4930963352  W2        1532            0.0000000000
      4595      1532  TIP3      H1            -53.7526505720      -23.5969324159       -4.7756363352  W2        1532            0.0000000000
      4596      1532  TIP3      H2            -52.4234805720      -24.3213724159       -4.7951163352  W2        1532            0.0000000000
      4597      1533  TIP3      OH2           -49.0166205720      -23.0077824159       -1.5337263352  W2        1533            0.0000000000
      4598      1533  TIP3      H1            -48.8318705720      -23.3411724159       -0.6556963352  W2        1533            0.0000000000
      4599      1533  TIP3      H2            -48.1701705720      -22.6979224159       -1.8558063352  W2        1533            0.0000000000
      4600      1534  TIP3      OH2           -46.6715805720      -21.7218924159       -2.2895863352  W2        1534            0.0000000000
      4601      1534  TIP3      H1            -45.9946905720      -22.3546624159       -2.5296663352  W2        1534            0.0000000000
      4602      1534  TIP3      H2            -46.3497005720      -21.3208424159       -1.4822563352  W2        1534            0.0000000000
      4603      1535  TIP3      OH2           -41.7542005720      -39.1323424159       -3.2100863352  W2        1535            0.0000000000
      4604      1535  TIP3      H1            -42.5668505720      -38.8073124159       -3.5976163352  W2        1535            0.0000000000
      4605      1535  TIP3      H2            -41.5213505720      -39.8924924159       -3.7431763352  W2        1535            0.0000000000
      4606      1536  TIP3      OH2           -55.9260905720      -21.1503924159       -4.4455663352  W2        1536            0.0000000000
      4607      1536  TIP3      H1            -56.6464505720      -20.7102924159       -4.8967963352  W2        1536            0.0000000000
      4608      1536  TIP3      H2            -56.2916905720      -21.4009224159       -3.5971663352  W2        1536            0.0000000000
      4609      1537  TIP3      OH2           -53.4588305720      -21.5500024159       -5.4158463352  W2        1537            0.0000000000
      4610      1537  TIP3      H1            -54.3236105720      -21.4781524159       -5.0118363352  W2        1537            0.0000000000
      4611      1537  TIP3      H2            -53.5139305720      -21.0032724159       -6.1995963352  W2        1537            0.0000000000
      4612      1538  TIP3      OH2           -48.7482705720      -21.6621124159       -6.2402463352  W2        1538            0.0000000000
      4613      1538  TIP3      H1            -49.2048705720      -21.1331424159       -6.8944063352  W2        1538            0.0000000000
      4614      1538  TIP3      H2            -48.5854705720      -21.0589724159       -5.5150163352  W2        1538            0.0000000000
      4615      1539  TIP3      OH2           -46.4206405720      -22.7841524159       -5.2952163352  W2        1539            0.0000000000
      4616      1539  TIP3      H1            -47.3252705720      -22.6191324159       -5.5610063352  W2        1539            0.0000000000
      4617      1539  TIP3      H2            -45.9917805720      -21.9309324159       -5.3608763352  W2        1539            0.0000000000
      4618      1540  TIP3      OH2           -43.8164505720      -21.2142424159       -5.0004363352  W2        1540            0.0000000000
      4619      1540  TIP3      H1            -43.9982505720      -20.2983524159       -5.2109463352  W2        1540            0.0000000000
      4620      1540  TIP3      H2            -43.6396705720      -21.6245324159       -5.8469763352  W2        1540            0.0000000000
      4621      1541  TIP3      OH2           -56.5112805720      -22.5271424159       -7.5353863352  W2        1541            0.0000000000
      4622      1541  TIP3      H1            -56.5296805720      -22.9526324159       -6.6781563352  W2        1541            0.0000000000
      4623      1541  TIP3      H2            -55.7064905720      -22.8456424159       -7.9441663352  W2        1541            0.0000000000
      4624      1542  TIP3      OH2           -54.3699705720      -23.8172724159       -8.8803963352  W2        1542            0.0000000000
      4625      1542  TIP3      H1            -54.5889005720      -24.7335324159       -8.7107963352  W2        1542            0.0000000000
      4626      1542  TIP3      H2            -53.5457505720      -23.6772324159       -8.4142563352  W2        1542            0.0000000000
      4627      1543  TIP3      OH2           -51.8327205720      -23.3473424159       -8.0315963352  W2        1543            0.0000000000
      4628      1543  TIP3      H1            -51.6201505720      -24.2354424159       -8.3185063352  W2        1543            0.0000000000
      4629      1543  TIP3      H2            -51.7682105720      -23.3815724159       -7.0771963352  W2        1543            0.0000000000
      4630      1544  TIP3      OH2           -48.3243505720      -37.6832824159       -8.8872663352  W2        1544            0.0000000000
      4631      1544  TIP3      H1            -48.9986705720      -38.3127224159       -8.6316863352  W2        1544            0.0000000000
      4632      1544  TIP3      H2            -47.7604305720      -38.1673924159       -9.4904763352  W2        1544            0.0000000000
      4633      1545  TIP3      OH2           -43.1816305720      -39.5758824159       -8.7745563352  W2        1545            0.0000000000
      4634      1545  TIP3      H1            -42.5778705720      -39.0283424159       -9.2764563352  W2        1545            0.0000000000
      4635      1545  TIP3      H2            -44.0514305720      -39.2568424159       -9.0151463352  W2        1545            0.0000000000
      4636      1546  TIP3      OH2           -41.4545905720      -38.4370124159      -10.4414663352  W2        1546            0.0000000000
      4637      1546  TIP3      H1            -40.8428405720      -38.9514424159      -10.9681063352  W2        1546            0.0000000000
      4638      1546  TIP3      H2            -41.0722505720      -37.5598024159      -10.4180263352  W2        1546            0.0000000000
      4639      1547  TIP3      OH2           -55.9976005720      -39.0492524159      -11.0652763352  W2        1547            0.0000000000
      4640      1547  TIP3      H1            -56.7746205720      -39.2837624159      -11.5726863352  W2        1547            0.0000000000
      4641      1547  TIP3      H2            -55.4672405720      -39.8460424159      -11.0564763352  W2        1547            0.0000000000
      4642      1548  TIP3      OH2           -57.1612605720      -39.2514424159      -15.2616663352  W2        1548            0.0000000000
      4643      1548  TIP3      H1            -56.7221905720      -38.6403924159      -15.8533163352  W2        1548            0.0000000000
      4644      1548  TIP3      H2            -57.7950205720      -38.7130324159      -14.7876663352  W2        1548            0.0000000000
      4645      1549  TIP3      OH2           -51.4183405720      -39.1225424159      -11.2519663352  W2        1549            0.0000000000
      4646      1549  TIP3      H1            -50.5440005720      -38.7341124159      -11.2815363352  W2        1549            0.0000000000
      4647      1549  TIP3      H2            -51.5542605720      -39.3377624159      -10.3292463352  W2        1549            0.0000000000
      4648      1550  TIP3      OH2           -45.8615005720      -39.0925624159       -9.6027963352  W2        1550            0.0000000000
      4649      1550  TIP3      H1            -45.7853405720      -38.9974024159      -10.5521963352  W2        1550            0.0000000000
      4650      1550  TIP3      H2            -46.1365805720      -40.0002724159       -9.4738863352  W2        1550            0.0000000000
      4651      1551  TIP3      OH2           -44.5082405720      -39.0667824159      -13.9102963352  W2        1551            0.0000000000
      4652      1551  TIP3      H1            -45.2111305720      -38.4518624159      -14.1201563352  W2        1551            0.0000000000
      4653      1551  TIP3      H2            -44.9531005720      -39.9041124159      -13.7792063352  W2        1551            0.0000000000
      4654      1552  TIP3      OH2           -57.2603105720      -23.3032224159      -14.3641563352  W2        1552            0.0000000000
      4655      1552  TIP3      H1            -57.9453205720      -23.3413324159      -15.0316463352  W2        1552            0.0000000000
      4656      1552  TIP3      H2            -57.2565905720      -22.3904624159      -14.0759463352  W2        1552            0.0000000000
      4657      1553  TIP3      OH2           -55.3003505720      -37.3352924159      -16.8192563352  W2        1553            0.0000000000
      4658      1553  TIP3      H1            -54.8090105720      -37.9650524159      -17.3467063352  W2        1553            0.0000000000
      4659      1553  TIP3      H2            -54.6767205720      -37.0393524159      -16.1561363352  W2        1553            0.0000000000
      4660      1554  TIP3      OH2           -50.2743405720      -37.0421424159      -14.3622063352  W2        1554            0.0000000000
      4661      1554  TIP3      H1            -50.0962105720      -37.6888224159      -13.6793463352  W2        1554            0.0000000000
      4662      1554  TIP3      H2            -50.3277205720      -36.2083724159      -13.8950963352  W2        1554            0.0000000000
      4663      1555  TIP3      OH2           -48.3959605720      -22.0937324159      -15.9665363352  W2        1555            0.0000000000
      4664      1555  TIP3      H1            -47.5299405720      -21.7269924159      -16.1447163352  W2        1555            0.0000000000
      4665      1555  TIP3      H2            -48.6426805720      -22.5329324159      -16.7804563352  W2        1555            0.0000000000
      4666      1556  TIP3      OH2           -41.6870005720      -22.5307024159      -13.2874263352  W2        1556            0.0000000000
      4667      1556  TIP3      H1            -41.8812905720      -23.2784924159      -13.8524663352  W2        1556            0.0000000000
      4668      1556  TIP3      H2            -41.7259905720      -21.7726924159      -13.8706363352  W2        1556            0.0000000000
      4669      1557  TIP3      OH2           -56.0398005720      -38.5350624159       -1.5476563352  W2        1557            0.0000000000
      4670      1557  TIP3      H1            -56.4059805720      -39.3008024159       -1.1051863352  W2        1557            0.0000000000
      4671      1557  TIP3      H2            -55.1269505720      -38.5060424159       -1.2611463352  W2        1557            0.0000000000
      4672      1558  TIP3      OH2           -54.0667205720      -39.1846224159       -0.0119463352  W2        1558            0.0000000000
      4673      1558  TIP3      H1            -53.1683605720      -39.4586024159       -0.1966063352  W2        1558            0.0000000000
      4674      1558  TIP3      H2            -54.4534105720      -39.9270224159        0.4523136648  W2        1558            0.0000000000
      4675      1559  TIP3      OH2           -55.4421905720      -22.3831424159      -17.3389463352  W2        1559            0.0000000000
      4676      1559  TIP3      H1            -55.7097305720      -22.0968524159      -16.4656363352  W2        1559            0.0000000000
      4677      1559  TIP3      H2            -54.6709305720      -22.9292224159      -17.1866963352  W2        1559            0.0000000000
      4678      1560  TIP3      OH2           -45.6454905720      -39.8520924159        0.1703336648  W2        1560            0.0000000000
      4679      1560  TIP3      H1            -45.5687705720      -40.2780224159        1.0241036648  W2        1560            0.0000000000
      4680      1560  TIP3      H2            -44.7518305720      -39.8386224159       -0.1723163352  W2        1560            0.0000000000
      4681      1561  TIP3      OH2           -42.4693805720      -23.7794624159       -1.1372463352  W2        1561            0.0000000000
      4682      1561  TIP3      H1            -43.2511905720      -23.9656624159       -1.6571863352  W2        1561            0.0000000000
      4683      1561  TIP3      H2            -42.5413905720      -22.8500324159       -0.9199963352  W2        1561            0.0000000000
      4684      1562  TIP3      OH2           -28.0633405720      -29.8930224159      -11.1065263352  W2        1562            0.0000000000
      4685      1562  TIP3      H1            -27.9742305720      -28.9492024159      -11.2388163352  W2        1562            0.0000000000
      4686      1562  TIP3      H2            -28.7015805720      -30.1683824159      -11.7645863352  W2        1562            0.0000000000
      4687      1563  TIP3      OH2           -29.1302105720      -30.6379524159       -7.6877063352  W2        1563            0.0000000000
      4688      1563  TIP3      H1            -29.1684605720      -31.2843224159       -6.9827463352  W2        1563            0.0000000000
      4689      1563  TIP3      H2            -29.4525605720      -31.1045124159       -8.4588363352  W2        1563            0.0000000000
      4690      1564  TIP3      OH2           -36.7617105720      -31.0237424159       -6.0947163352  W2        1564            0.0000000000
      4691      1564  TIP3      H1            -36.7205005720      -31.6494124159       -5.3714763352  W2        1564            0.0000000000
      4692      1564  TIP3      H2            -36.0589405720      -30.3998824159       -5.9126763352  W2        1564            0.0000000000
      4693      1565  TIP3      OH2           -25.4241905720      -27.6989124159       -9.3861963352  W2        1565            0.0000000000
      4694      1565  TIP3      H1            -25.8649205720      -28.4193124159       -8.9356363352  W2        1565            0.0000000000
      4695      1565  TIP3      H2            -25.4372205720      -26.9781924159       -8.7564263352  W2        1565            0.0000000000
      4696      1566  TIP3      OH2           -35.8384005720      -26.5738524159       -7.5598063352  W2        1566            0.0000000000
      4697      1566  TIP3      H1            -36.2078805720      -27.3758024159       -7.9293763352  W2        1566            0.0000000000
      4698      1566  TIP3      H2            -34.8972905720      -26.7423624159       -7.5134663352  W2        1566            0.0000000000
      4699      1567  TIP3      OH2           -39.2283505720      -32.9135924159      -12.1669263352  W2        1567            0.0000000000
      4700      1567  TIP3      H1            -39.6760105720      -32.0677224159      -12.1852763352  W2        1567            0.0000000000
      4701      1567  TIP3      H2            -39.7892305720      -33.4931724159      -12.6824163352  W2        1567            0.0000000000
      4702      1568  TIP3      OH2           -38.5177405720      -30.7516324159      -10.0411263352  W2        1568            0.0000000000
      4703      1568  TIP3      H1            -38.3043905720      -31.5214724159       -9.5138263352  W2        1568            0.0000000000
      4704      1568  TIP3      H2            -37.7799805720      -30.6619624159      -10.6443663352  W2        1568            0.0000000000
      4705      1569  TIP3      OH2           -28.3126405720      -22.5947424159       -9.1741563352  W2        1569            0.0000000000
      4706      1569  TIP3      H1            -27.6930005720      -23.2712724159       -9.4472363352  W2        1569            0.0000000000
      4707      1569  TIP3      H2            -28.5209005720      -22.8126624159       -8.2656663352  W2        1569            0.0000000000
      4708      1570  TIP3      OH2           -30.7407705720      -28.2058124159       -7.2816063352  W2        1570            0.0000000000
      4709      1570  TIP3      H1            -30.4369805720      -28.8916724159       -7.8761963352  W2        1570            0.0000000000
      4710      1570  TIP3      H2            -30.0193705720      -28.0869424159       -6.6638063352  W2        1570            0.0000000000
      4711      1571  TIP3      OH2           -22.0777905720      -36.6042824159       -6.4209863352  W2        1571            0.0000000000
      4712      1571  TIP3      H1            -22.0285705720      -35.9941624159       -5.6850763352  W2        1571            0.0000000000
      4713      1571  TIP3      H2            -21.6522805720      -36.1431924159       -7.1438763352  W2        1571            0.0000000000
      4714      1572  TIP3      OH2           -27.6000705720      -33.8115724159       -6.9541263352  W2        1572            0.0000000000
      4715      1572  TIP3      H1            -27.4574805720      -34.7578724159       -6.9339663352  W2        1572            0.0000000000
      4716      1572  TIP3      H2            -27.7061705720      -33.6045924159       -7.8826363352  W2        1572            0.0000000000
      4717      1573  TIP3      OH2           -34.4452405720      -35.7099324159       -9.6816463352  W2        1573            0.0000000000
      4718      1573  TIP3      H1            -34.4021305720      -34.8500824159      -10.1000163352  W2        1573            0.0000000000
      4719      1573  TIP3      H2            -34.9028305720      -36.2624624159      -10.3153263352  W2        1573            0.0000000000
      4720      1574  TIP3      OH2           -26.7229705720      -35.5793724159      -11.2808163352  W2        1574            0.0000000000
      4721      1574  TIP3      H1            -26.0765405720      -35.9080524159      -10.6560563352  W2        1574            0.0000000000
      4722      1574  TIP3      H2            -26.2130305720      -35.0614724159      -11.9036763352  W2        1574            0.0000000000
      4723      1575  TIP3      OH2           -37.8250905720      -33.3133524159       -8.9195063352  W2        1575            0.0000000000
      4724      1575  TIP3      H1            -37.1714305720      -33.8631824159       -8.4874963352  W2        1575            0.0000000000
      4725      1575  TIP3      H2            -37.8011605720      -33.5874524159       -9.8363063352  W2        1575            0.0000000000
      4726      1576  TIP3      OH2           -32.6686405720      -31.7632224159       -9.7043563352  W2        1576            0.0000000000
      4727      1576  TIP3      H1            -32.0525405720      -32.2896824159       -9.1949563352  W2        1576            0.0000000000
      4728      1576  TIP3      H2            -33.2547605720      -32.4033524159      -10.1079963352  W2        1576            0.0000000000
      4729      1577  TIP3      OH2           -21.6863305720      -35.1263624159       -4.1850063352  W2        1577            0.0000000000
      4730      1577  TIP3      H1            -22.3748705720      -34.4682924159       -4.2803463352  W2        1577            0.0000000000
      4731      1577  TIP3      H2            -21.6708705720      -35.3235724159       -3.2484663352  W2        1577            0.0000000000
      4732      1578  TIP3      OH2           -35.6350505720      -36.7920924159       -5.6075663352  W2        1578            0.0000000000
      4733      1578  TIP3      H1            -35.8538805720      -36.2620324159       -6.3739663352  W2        1578            0.0000000000
      4734      1578  TIP3      H2            -36.3029605720      -36.5655424159       -4.9604263352  W2        1578            0.0000000000
      4735      1579  TIP3      OH2           -28.2660705720      -27.2919824159      -12.0636563352  W2        1579            0.0000000000
      4736      1579  TIP3      H1            -28.5615605720      -27.6147524159      -12.9149663352  W2        1579            0.0000000000
      4737      1579  TIP3      H2            -28.5902905720      -26.3923124159      -12.0223963352  W2        1579            0.0000000000
      4738      1580  TIP3      OH2           -33.0659105720      -29.1165224159       -5.3201963352  W2        1580            0.0000000000
      4739      1580  TIP3      H1            -33.8060005720      -28.5183724159       -5.2166763352  W2        1580            0.0000000000
      4740      1580  TIP3      H2            -32.3519605720      -28.5625624159       -5.6358363352  W2        1580            0.0000000000
      4741      1581  TIP3      OH2           -24.9591305720      -36.2884424159       -9.3002263352  W2        1581            0.0000000000
      4742      1581  TIP3      H1            -25.1743305720      -37.0541024159       -8.7676263352  W2        1581            0.0000000000
      4743      1581  TIP3      H2            -24.3033905720      -35.8159824159       -8.7873763352  W2        1581            0.0000000000
      4744      1582  TIP3      OH2           -36.0413205720      -34.8999124159       -7.6553463352  W2        1582            0.0000000000
      4745      1582  TIP3      H1            -35.4276905720      -34.2671524159       -7.2821063352  W2        1582            0.0000000000
      4746      1582  TIP3      H2            -35.5292505720      -35.3724124159       -8.3116563352  W2        1582            0.0000000000
      4747      1583  TIP3      OH2           -34.6584805720      -27.1522224159       -4.5330463352  W2        1583            0.0000000000
      4748      1583  TIP3      H1            -34.6637205720      -26.2728724159       -4.9111163352  W2        1583            0.0000000000
      4749      1583  TIP3      H2            -35.5120705720      -27.2358124159       -4.1080563352  W2        1583            0.0000000000
      4750      1584  TIP3      OH2           -38.5373905720      -27.4814324159      -13.7511163352  W2        1584            0.0000000000
      4751      1584  TIP3      H1            -38.8093005720      -27.2523324159      -14.6398263352  W2        1584            0.0000000000
      4752      1584  TIP3      H2            -38.4918205720      -26.6435524159      -13.2905863352  W2        1584            0.0000000000
      4753      1585  TIP3      OH2           -24.9124205720      -25.8598424159       -7.0382663352  W2        1585            0.0000000000
      4754      1585  TIP3      H1            -25.8540505720      -25.8014524159       -6.8765763352  W2        1585            0.0000000000
      4755      1585  TIP3      H2            -24.6358105720      -24.9537924159       -7.1752963352  W2        1585            0.0000000000
      4756      1586  TIP3      OH2           -24.6117205720      -37.5733124159       -5.6208763352  W2        1586            0.0000000000
      4757      1586  TIP3      H1            -25.3478005720      -36.9626024159       -5.6587463352  W2        1586            0.0000000000
      4758      1586  TIP3      H2            -23.9283205720      -37.1584124159       -6.1472363352  W2        1586            0.0000000000
      4759      1587  TIP3      OH2           -31.6085805720      -39.4865824159       -8.1550763352  W2        1587            0.0000000000
      4760      1587  TIP3      H1            -31.7261605720      -40.4349824159       -8.2092463352  W2        1587            0.0000000000
      4761      1587  TIP3      H2            -32.4635705720      -39.1539724159       -7.8819663352  W2        1587            0.0000000000
      4762      1588  TIP3      OH2           -26.6603005720      -24.0784924159      -10.4131063352  W2        1588            0.0000000000
      4763      1588  TIP3      H1            -26.2350705720      -24.7857024159      -10.8981463352  W2        1588            0.0000000000
      4764      1588  TIP3      H2            -26.3433005720      -23.2772224159      -10.8298863352  W2        1588            0.0000000000
      4765      1589  TIP3      OH2           -25.5006505720      -26.1776424159      -11.9044463352  W2        1589            0.0000000000
      4766      1589  TIP3      H1            -25.7581705720      -26.8676324159      -12.5158563352  W2        1589            0.0000000000
      4767      1589  TIP3      H2            -25.4295705720      -26.6205224159      -11.0588563352  W2        1589            0.0000000000
      4768      1590  TIP3      OH2           -23.8146305720      -27.6109724159       -3.4270963352  W2        1590            0.0000000000
      4769      1590  TIP3      H1            -23.6750005720      -28.2027224159       -4.1663963352  W2        1590            0.0000000000
      4770      1590  TIP3      H2            -23.6473505720      -26.7383824159       -3.7832163352  W2        1590            0.0000000000
      4771      1591  TIP3      OH2           -29.3420905720      -30.6490224159      -13.6544963352  W2        1591            0.0000000000
      4772      1591  TIP3      H1            -30.0535405720      -30.1140524159      -14.0064463352  W2        1591            0.0000000000
      4773      1591  TIP3      H2            -28.6511305720      -30.5938124159      -14.3146063352  W2        1591            0.0000000000
      4774      1592  TIP3      OH2           -29.2881705720      -32.1915924159      -16.6159963352  W2        1592            0.0000000000
      4775      1592  TIP3      H1            -28.5871805720      -32.1689024159      -15.9645963352  W2        1592            0.0000000000
      4776      1592  TIP3      H2            -28.9858805720      -32.8196224159      -17.2720663352  W2        1592            0.0000000000
      4777      1593  TIP3      OH2           -21.9727005720      -31.2711724159       -5.3610563352  W2        1593            0.0000000000
      4778      1593  TIP3      H1            -22.6252905720      -30.5766124159       -5.2719663352  W2        1593            0.0000000000
      4779      1593  TIP3      H2            -21.5076705720      -31.0610824159       -6.1708963352  W2        1593            0.0000000000
      4780      1594  TIP3      OH2           -25.9363205720      -30.4396924159      -12.7029063352  W2        1594            0.0000000000
      4781      1594  TIP3      H1            -26.6682205720      -30.2113224159      -12.1298463352  W2        1594            0.0000000000
      4782      1594  TIP3      H2            -25.4891005720      -31.1534224159      -12.2481563352  W2        1594            0.0000000000
      4783      1595  TIP3      OH2           -26.0389705720      -32.2654324159       -3.6352063352  W2        1595            0.0000000000
      4784      1595  TIP3      H1            -25.9590605720      -31.5019924159       -3.0633563352  W2        1595            0.0000000000
      4785      1595  TIP3      H2            -26.6402005720      -31.9861924159       -4.3256963352  W2        1595            0.0000000000
      4786      1596  TIP3      OH2           -34.2909505720      -29.8090724159      -10.8204063352  W2        1596            0.0000000000
      4787      1596  TIP3      H1            -34.6214305720      -30.1797324159      -11.6387063352  W2        1596            0.0000000000
      4788      1596  TIP3      H2            -33.7025405720      -30.4796724159      -10.4735763352  W2        1596            0.0000000000
      4789      1597  TIP3      OH2           -32.9242005720      -26.3810124159       -8.1391863352  W2        1597            0.0000000000
      4790      1597  TIP3      H1            -33.0190705720      -26.9597024159       -8.8957263352  W2        1597            0.0000000000
      4791      1597  TIP3      H2            -32.1948405720      -26.7524424159       -7.6429063352  W2        1597            0.0000000000
      4792      1598  TIP3      OH2           -33.9244005720      -31.0405124159       -7.1869063352  W2        1598            0.0000000000
      4793      1598  TIP3      H1            -33.3591505720      -30.9190924159       -7.9497863352  W2        1598            0.0000000000
      4794      1598  TIP3      H2            -33.6055105720      -30.4030124159       -6.5480563352  W2        1598            0.0000000000
      4795      1599  TIP3      OH2           -27.6151805720      -25.5373224159       -6.4528563352  W2        1599            0.0000000000
      4796      1599  TIP3      H1            -27.8555205720      -24.8750124159       -5.8049363352  W2        1599            0.0000000000
      4797      1599  TIP3      H2            -27.8133605720      -26.3718024159       -6.0278963352  W2        1599            0.0000000000
      4798      1600  TIP3      OH2           -33.0443305720      -26.6412424159       -2.4697163352  W2        1600            0.0000000000
      4799      1600  TIP3      H1            -33.3555805720      -25.8589224159       -2.0143963352  W2        1600            0.0000000000
      4800      1600  TIP3      H2            -33.6943105720      -26.7943324159       -3.1555163352  W2        1600            0.0000000000
      4801      1601  TIP3      OH2           -27.0653705720      -31.2774024159      -15.0177863352  W2        1601            0.0000000000
      4802      1601  TIP3      H1            -26.4858205720      -31.1273724159      -14.2708963352  W2        1601            0.0000000000
      4803      1601  TIP3      H2            -26.6513705720      -30.8066624159      -15.7411463352  W2        1601            0.0000000000
      4804      1602  TIP3      OH2           -36.1243405720      -30.4431324159       -3.2411463352  W2        1602            0.0000000000
      4805      1602  TIP3      H1            -36.0540205720      -29.7924524159       -2.5426463352  W2        1602            0.0000000000
      4806      1602  TIP3      H2            -37.0151205720      -30.3403824159       -3.5760563352  W2        1602            0.0000000000
      4807      1603  TIP3      OH2           -29.3388805720      -24.5405524159      -11.5824763352  W2        1603            0.0000000000
      4808      1603  TIP3      H1            -28.8651205720      -24.2449224159      -10.8050563352  W2        1603            0.0000000000
      4809      1603  TIP3      H2            -29.9019505720      -23.8023924159      -11.8155163352  W2        1603            0.0000000000
      4810      1604  TIP3      OH2           -34.8047405720      -24.5697424159       -1.7063363352  W2        1604            0.0000000000
      4811      1604  TIP3      H1            -34.7972105720      -24.7057724159       -2.6537863352  W2        1604            0.0000000000
      4812      1604  TIP3      H2            -35.7207005720      -24.6869324159       -1.4543363352  W2        1604            0.0000000000
      4813      1605  TIP3      OH2           -23.3665305720      -39.5273624159      -15.2048163352  W2        1605            0.0000000000
      4814      1605  TIP3      H1            -24.2664605720      -39.3884624159      -14.9097563352  W2        1605            0.0000000000
      4815      1605  TIP3      H2            -23.1146905720      -38.6959024159      -15.6066463352  W2        1605            0.0000000000
      4816      1606  TIP3      OH2           -35.3006805720      -30.7396424159      -13.2311263352  W2        1606            0.0000000000
      4817      1606  TIP3      H1            -35.5925505720      -29.9714724159      -13.7219963352  W2        1606            0.0000000000
      4818      1606  TIP3      H2            -35.9751605720      -31.3990224159      -13.3939863352  W2        1606            0.0000000000
      4819      1607  TIP3      OH2           -22.1773905720      -25.1611224159      -16.8284263352  W2        1607            0.0000000000
      4820      1607  TIP3      H1            -22.1040405720      -24.2221024159      -16.6578963352  W2        1607            0.0000000000
      4821      1607  TIP3      H2            -21.2718805720      -25.4662624159      -16.8846963352  W2        1607            0.0000000000
      4822      1608  TIP3      OH2           -39.2076705720      -28.3767224159       -4.4161463352  W2        1608            0.0000000000
      4823      1608  TIP3      H1            -39.7088305720      -28.4047824159       -5.2311763352  W2        1608            0.0000000000
      4824      1608  TIP3      H2            -39.2023005720      -29.2824024159       -4.1064163352  W2        1608            0.0000000000
      4825      1609  TIP3      OH2           -39.4574005720      -25.5963424159       -7.5321263352  W2        1609            0.0000000000
      4826      1609  TIP3      H1            -38.5113405720      -25.7406424159       -7.5511763352  W2        1609            0.0000000000
      4827      1609  TIP3      H2            -39.5697705720      -24.8120624159       -6.9950063352  W2        1609            0.0000000000
      4828      1610  TIP3      OH2           -21.2595505720      -24.9303724159       -1.8497563352  W2        1610            0.0000000000
      4829      1610  TIP3      H1            -21.3088705720      -25.8855624159       -1.8869963352  W2        1610            0.0000000000
      4830      1610  TIP3      H2            -22.0863205720      -24.6628424159       -1.4483763352  W2        1610            0.0000000000
      4831      1611  TIP3      OH2           -30.2811505720      -25.3564524159       -2.9736163352  W2        1611            0.0000000000
      4832      1611  TIP3      H1            -30.1936905720      -24.5299924159       -2.4987063352  W2        1611            0.0000000000
      4833      1611  TIP3      H2            -31.1446405720      -25.6860724159       -2.7246863352  W2        1611            0.0000000000
      4834      1612  TIP3      OH2           -29.8665705720      -21.5840824159      -13.1675563352  W2        1612            0.0000000000
      4835      1612  TIP3      H1            -29.9419705720      -21.7053624159      -14.1140363352  W2        1612            0.0000000000
      4836      1612  TIP3      H2            -29.8337005720      -20.6348124159      -13.0490963352  W2        1612            0.0000000000
      4837      1613  TIP3      OH2           -36.2131905720      -22.7953824159      -11.3866563352  W2        1613            0.0000000000
      4838      1613  TIP3      H1            -36.0611505720      -23.1433424159      -10.5080063352  W2        1613            0.0000000000
      4839      1613  TIP3      H2            -37.0641505720      -23.1516524159      -11.6419363352  W2        1613            0.0000000000
      4840      1614  TIP3      OH2           -26.7649705720      -22.4300624159      -16.1653163352  W2        1614            0.0000000000
      4841      1614  TIP3      H1            -26.3901305720      -23.1744524159      -16.6360563352  W2        1614            0.0000000000
      4842      1614  TIP3      H2            -26.7606005720      -22.7000024159      -15.2469863352  W2        1614            0.0000000000
      4843      1615  TIP3      OH2           -27.0961605720      -22.5043524159      -13.4160963352  W2        1615            0.0000000000
      4844      1615  TIP3      H1            -28.0311805720      -22.4041624159      -13.2373963352  W2        1615            0.0000000000
      4845      1615  TIP3      H2            -26.8159705720      -23.2137524159      -12.8377763352  W2        1615            0.0000000000
      4846      1616  TIP3      OH2           -24.1075705720      -33.4371224159       -1.3695363352  W2        1616            0.0000000000
      4847      1616  TIP3      H1            -24.5148905720      -32.9565624159       -2.0902063352  W2        1616            0.0000000000
      4848      1616  TIP3      H2            -24.0670005720      -34.3425224159       -1.6774563352  W2        1616            0.0000000000
      4849      1617  TIP3      OH2           -36.9586205720      -27.0531824159       -3.3728663352  W2        1617            0.0000000000
      4850      1617  TIP3      H1            -36.7424905720      -27.4146224159       -2.5132863352  W2        1617            0.0000000000
      4851      1617  TIP3      H2            -37.8141505720      -27.4278024159       -3.5825163352  W2        1617            0.0000000000
      4852      1618  TIP3      OH2           -34.3398205720      -38.5831324159       -7.3774463352  W2        1618            0.0000000000
      4853      1618  TIP3      H1            -35.2014505720      -38.6703124159       -7.7851563352  W2        1618            0.0000000000
      4854      1618  TIP3      H2            -34.3622505720      -37.7271224159       -6.9496863352  W2        1618            0.0000000000
      4855      1619  TIP3      OH2           -29.6770405720      -38.8610924159       -4.0027463352  W2        1619            0.0000000000
      4856      1619  TIP3      H1            -29.2567305720      -39.2763824159       -3.2496863352  W2        1619            0.0000000000
      4857      1619  TIP3      H2            -30.6100805720      -39.0397624159       -3.8855463352  W2        1619            0.0000000000
      4858      1620  TIP3      OH2           -26.3505505720      -35.1055724159       -3.1492963352  W2        1620            0.0000000000
      4859      1620  TIP3      H1            -26.8646005720      -35.2313524159       -2.3516963352  W2        1620            0.0000000000
      4860      1620  TIP3      H2            -26.5060805720      -34.1932624159       -3.3936763352  W2        1620            0.0000000000
      4861      1621  TIP3      OH2           -25.5880605720      -30.2445724159      -17.3879963352  W2        1621            0.0000000000
      4862      1621  TIP3      H1            -25.5459805720      -30.4671824159      -18.3179963352  W2        1621            0.0000000000
      4863      1621  TIP3      H2            -24.7388505720      -29.8458624159      -17.1980063352  W2        1621            0.0000000000
      4864      1622  TIP3      OH2           -30.0153105720      -36.3687524159      -16.7176663352  W2        1622            0.0000000000
      4865      1622  TIP3      H1            -30.2688305720      -36.3495924159      -15.7948563352  W2        1622            0.0000000000
      4866      1622  TIP3      H2            -30.2721005720      -37.2402124159      -17.0190463352  W2        1622            0.0000000000
      4867      1623  TIP3      OH2           -34.2488105720      -33.6176824159       -6.2824263352  W2        1623            0.0000000000
      4868      1623  TIP3      H1            -34.8906005720      -33.6579524159       -5.5734163352  W2        1623            0.0000000000
      4869      1623  TIP3      H2            -34.2116105720      -32.6912124159       -6.5201263352  W2        1623            0.0000000000
      4870      1624  TIP3      OH2           -34.2519005720      -33.3966724159      -11.3704263352  W2        1624            0.0000000000
      4871      1624  TIP3      H1            -35.1446105720      -33.7370624159      -11.4290463352  W2        1624            0.0000000000
      4872      1624  TIP3      H2            -33.8012405720      -33.7735824159      -12.1261063352  W2        1624            0.0000000000
      4873      1625  TIP3      OH2           -28.7163505720      -32.9806424159      -12.5533463352  W2        1625            0.0000000000
      4874      1625  TIP3      H1            -29.1253205720      -32.1657824159      -12.8448663352  W2        1625            0.0000000000
      4875      1625  TIP3      H2            -27.9957305720      -33.1206324159      -13.1676363352  W2        1625            0.0000000000
      4876      1626  TIP3      OH2           -29.6141905720      -32.8050024159       -1.0652763352  W2        1626            0.0000000000
      4877      1626  TIP3      H1            -30.1768105720      -33.5098424159       -0.7444963352  W2        1626            0.0000000000
      4878      1626  TIP3      H2            -28.7878505720      -32.9258124159       -0.5975163352  W2        1626            0.0000000000
      4879      1627  TIP3      OH2           -27.7115805720      -33.5346024159       -9.7393763352  W2        1627            0.0000000000
      4880      1627  TIP3      H1            -27.9071305720      -32.9289224159      -10.4543163352  W2        1627            0.0000000000
      4881      1627  TIP3      H2            -27.5303205720      -34.3680824159      -10.1737463352  W2        1627            0.0000000000
      4882      1628  TIP3      OH2           -36.4987605720      -33.2973324159       -4.4152263352  W2        1628            0.0000000000
      4883      1628  TIP3      H1            -36.5368205720      -32.8971724159       -3.5465163352  W2        1628            0.0000000000
      4884      1628  TIP3      H2            -36.9896505720      -34.1140924159       -4.3249363352  W2        1628            0.0000000000
      4885      1629  TIP3      OH2           -33.1330205720      -35.9231024159      -17.6166263352  W2        1629            0.0000000000
      4886      1629  TIP3      H1            -33.5639505720      -36.3680924159      -16.8868863352  W2        1629            0.0000000000
      4887      1629  TIP3      H2            -33.8511505720      -35.5514724159      -18.1288763352  W2        1629            0.0000000000
      4888      1630  TIP3      OH2           -39.8906805720      -36.1811524159      -10.5647563352  W2        1630            0.0000000000
      4889      1630  TIP3      H1            -39.2599105720      -36.2099424159       -9.8453663352  W2        1630            0.0000000000
      4890      1630  TIP3      H2            -39.4412505720      -36.6062824159      -11.2951663352  W2        1630            0.0000000000
      4891      1631  TIP3      OH2           -38.6164705720      -35.4349524159      -15.1407163352  W2        1631            0.0000000000
      4892      1631  TIP3      H1            -38.1423005720      -34.8439624159      -15.7256263352  W2        1631            0.0000000000
      4893      1631  TIP3      H2            -39.3338305720      -34.9046624159      -14.7937063352  W2        1631            0.0000000000
      4894      1632  TIP3      OH2           -28.4476605720      -31.8964724159       -5.0681363352  W2        1632            0.0000000000
      4895      1632  TIP3      H1            -28.1241805720      -32.5275024159       -5.7110863352  W2        1632            0.0000000000
      4896      1632  TIP3      H2            -28.8877305720      -32.4312524159       -4.4073963352  W2        1632            0.0000000000
      4897      1633  TIP3      OH2           -31.6703705720      -35.9689224159      -10.2840163352  W2        1633            0.0000000000
      4898      1633  TIP3      H1            -32.5812605720      -35.9122424159       -9.9954163352  W2        1633            0.0000000000
      4899      1633  TIP3      H2            -31.1650805720      -36.0293724159       -9.4732963352  W2        1633            0.0000000000
      4900      1634  TIP3      OH2           -36.8420305720      -34.3402924159      -11.4572563352  W2        1634            0.0000000000
      4901      1634  TIP3      H1            -37.7312305720      -34.2407424159      -11.7972963352  W2        1634            0.0000000000
      4902      1634  TIP3      H2            -36.5455405720      -35.1819924159      -11.8034663352  W2        1634            0.0000000000
      4903      1635  TIP3      OH2           -33.1888505720      -34.3400324159      -13.8007963352  W2        1635            0.0000000000
      4904      1635  TIP3      H1            -32.2573005720      -34.2110324159      -13.6224863352  W2        1635            0.0000000000
      4905      1635  TIP3      H2            -33.4038205720      -33.6706024159      -14.4503263352  W2        1635            0.0000000000
      4906      1636  TIP3      OH2           -27.2651805720      -36.7342924159       -7.0198363352  W2        1636            0.0000000000
      4907      1636  TIP3      H1            -27.9420205720      -36.6029824159       -6.3558663352  W2        1636            0.0000000000
      4908      1636  TIP3      H2            -27.7506905720      -36.8893424159       -7.8300663352  W2        1636            0.0000000000
      4909      1637  TIP3      OH2           -34.5148305720      -33.1458124159      -16.2341863352  W2        1637            0.0000000000
      4910      1637  TIP3      H1            -35.0573205720      -33.5254324159      -16.9254263352  W2        1637            0.0000000000
      4911      1637  TIP3      H2            -33.6813405720      -32.9513424159      -16.6627763352  W2        1637            0.0000000000
      4912      1638  TIP3      OH2           -23.9776705720      -21.0627524159       -0.7430763352  W2        1638            0.0000000000
      4913      1638  TIP3      H1            -23.7778005720      -20.6385624159       -1.5775463352  W2        1638            0.0000000000
      4914      1638  TIP3      H2            -23.3223005720      -20.7189324159       -0.1360363352  W2        1638            0.0000000000
      4915      1639  TIP3      OH2           -36.3796905720      -28.5886224159       -1.1350263352  W2        1639            0.0000000000
      4916      1639  TIP3      H1            -35.6474505720      -28.3340324159       -0.5735763352  W2        1639            0.0000000000
      4917      1639  TIP3      H2            -37.1598205720      -28.3840824159       -0.6194863352  W2        1639            0.0000000000
      4918      1640  TIP3      OH2           -30.3504005720      -33.1816224159       -8.3970563352  W2        1640            0.0000000000
      4919      1640  TIP3      H1            -29.7860605720      -33.7279624159       -8.9440963352  W2        1640            0.0000000000
      4920      1640  TIP3      H2            -30.4980605720      -33.7034324159       -7.6082963352  W2        1640            0.0000000000
      4921      1641  TIP3      OH2           -35.3484305720      -37.0450124159      -11.9785763352  W2        1641            0.0000000000
      4922      1641  TIP3      H1            -35.6654805720      -37.9474824159      -12.0140363352  W2        1641            0.0000000000
      4923      1641  TIP3      H2            -34.5670205720      -37.0432724159      -12.5314163352  W2        1641            0.0000000000
      4924      1642  TIP3      OH2           -31.7238105720      -34.7930124159       -5.9830163352  W2        1642            0.0000000000
      4925      1642  TIP3      H1            -32.5592805720      -34.3390624159       -5.8727763352  W2        1642            0.0000000000
      4926      1642  TIP3      H2            -31.1997505720      -34.5171624159       -5.2310263352  W2        1642            0.0000000000
      4927      1643  TIP3      OH2           -31.1795505720      -28.5802424159      -14.2983763352  W2        1643            0.0000000000
      4928      1643  TIP3      H1            -31.9244505720      -29.0877124159      -14.6205863352  W2        1643            0.0000000000
      4929      1643  TIP3      H2            -31.3138305720      -28.5314424159      -13.3518963352  W2        1643            0.0000000000
      4930      1644  TIP3      OH2           -24.0296605720      -29.4474224159       -5.5116163352  W2        1644            0.0000000000
      4931      1644  TIP3      H1            -23.3877805720      -28.9907924159       -6.0553963352  W2        1644            0.0000000000
      4932      1644  TIP3      H2            -24.8599705720      -29.3341824159       -5.9742063352  W2        1644            0.0000000000
      4933      1645  TIP3      OH2           -27.2818705720      -35.7662524159      -16.0991163352  W2        1645            0.0000000000
      4934      1645  TIP3      H1            -28.2204505720      -35.6546924159      -16.2502363352  W2        1645            0.0000000000
      4935      1645  TIP3      H2            -26.9846605720      -34.9095624159      -15.7925463352  W2        1645            0.0000000000
      4936      1646  TIP3      OH2           -29.6603405720      -28.3959124159       -3.0614663352  W2        1646            0.0000000000
      4937      1646  TIP3      H1            -30.0057305720      -28.7776724159       -2.2545063352  W2        1646            0.0000000000
      4938      1646  TIP3      H2            -29.8603305720      -27.4625524159       -2.9901763352  W2        1646            0.0000000000
      4939      1647  TIP3      OH2           -26.5635205720      -33.8989824159      -14.4383763352  W2        1647            0.0000000000
      4940      1647  TIP3      H1            -25.6716205720      -34.0364824159      -14.1192563352  W2        1647            0.0000000000
      4941      1647  TIP3      H2            -26.5071605720      -33.1083724159      -14.9750263352  W2        1647            0.0000000000
      4942      1648  TIP3      OH2           -36.0547205720      -29.2852424159       -8.5285863352  W2        1648            0.0000000000
      4943      1648  TIP3      H1            -35.3100005720      -29.2876724159       -9.1299363352  W2        1648            0.0000000000
      4944      1648  TIP3      H2            -35.9770605720      -30.1088624159       -8.0470763352  W2        1648            0.0000000000
      4945      1649  TIP3      OH2           -29.0541405720      -27.1218124159      -15.2729163352  W2        1649            0.0000000000
      4946      1649  TIP3      H1            -29.3493005720      -26.2950224159      -14.8914363352  W2        1649            0.0000000000
      4947      1649  TIP3      H2            -29.7571405720      -27.7411224159      -15.0767763352  W2        1649            0.0000000000
      4948      1650  TIP3      OH2           -39.0467505720      -30.8245524159       -3.2137363352  W2        1650            0.0000000000
      4949      1650  TIP3      H1            -38.8238905720      -31.2425924159       -2.3819863352  W2        1650            0.0000000000
      4950      1650  TIP3      H2            -39.6487405720      -31.4370524159       -3.6364563352  W2        1650            0.0000000000
      4951      1651  TIP3      OH2           -32.0302605720      -31.3075624159       -1.0007663352  W2        1651            0.0000000000
      4952      1651  TIP3      H1            -32.3261805720      -31.4732624159       -1.8958563352  W2        1651            0.0000000000
      4953      1651  TIP3      H2            -31.0987405720      -31.5275324159       -1.0113763352  W2        1651            0.0000000000
      4954      1652  TIP3      OH2           -27.4099805720      -25.9343624159       -3.1109663352  W2        1652            0.0000000000
      4955      1652  TIP3      H1            -28.3105505720      -25.7511024159       -3.3785763352  W2        1652            0.0000000000
      4956      1652  TIP3      H2            -27.3758705720      -25.6754324159       -2.1900863352  W2        1652            0.0000000000
      4957      1653  TIP3      OH2           -21.6786505720      -33.6895724159      -14.7437063352  W2        1653            0.0000000000
      4958      1653  TIP3      H1            -22.2330205720      -34.0857724159      -15.4159563352  W2        1653            0.0000000000
      4959      1653  TIP3      H2            -21.5782905720      -32.7790524159      -15.0213763352  W2        1653            0.0000000000
      4960      1654  TIP3      OH2           -21.7154505720      -27.8894024159       -1.9065563352  W2        1654            0.0000000000
      4961      1654  TIP3      H1            -22.5666005720      -27.6510224159       -2.2739163352  W2        1654            0.0000000000
      4962      1654  TIP3      H2            -21.1251105720      -27.9060824159       -2.6598463352  W2        1654            0.0000000000
      4963      1655  TIP3      OH2           -23.3834805720      -24.9035324159      -14.2784963352  W2        1655            0.0000000000
      4964      1655  TIP3      H1            -23.7563705720      -25.7291524159      -13.9694363352  W2        1655            0.0000000000
      4965      1655  TIP3      H2            -23.1061305720      -25.0865924159      -15.1761563352  W2        1655            0.0000000000
      4966      1656  TIP3      OH2           -26.2230905720      -30.0955824159       -7.2573063352  W2        1656            0.0000000000
      4967      1656  TIP3      H1            -27.1514005720      -30.3273924159       -7.2843763352  W2        1656            0.0000000000
      4968      1656  TIP3      H2            -25.7719805720      -30.8726024159       -7.5874263352  W2        1656            0.0000000000
      4969      1657  TIP3      OH2           -33.6797805720      -25.7674224159      -11.1244363352  W2        1657            0.0000000000
      4970      1657  TIP3      H1            -33.1525605720      -24.9939824159      -11.3245563352  W2        1657            0.0000000000
      4971      1657  TIP3      H2            -34.5599305720      -25.5425024159      -11.4260363352  W2        1657            0.0000000000
      4972      1658  TIP3      OH2           -37.9250105720      -30.9050124159      -16.5371963352  W2        1658            0.0000000000
      4973      1658  TIP3      H1            -37.3090205720      -30.2782924159      -16.1577163352  W2        1658            0.0000000000
      4974      1658  TIP3      H2            -38.7867505720      -30.5890324159      -16.2655463352  W2        1658            0.0000000000
      4975      1659  TIP3      OH2           -32.2525505720      -28.1044324159      -11.5480063352  W2        1659            0.0000000000
      4976      1659  TIP3      H1            -32.4935505720      -27.1789924159      -11.5064763352  W2        1659            0.0000000000
      4977      1659  TIP3      H2            -32.9931905720      -28.5633024159      -11.1516163352  W2        1659            0.0000000000
      4978      1660  TIP3      OH2           -31.7378905720      -23.9550724159       -5.2328963352  W2        1660            0.0000000000
      4979      1660  TIP3      H1            -31.3754205720      -23.1005124159       -5.4664563352  W2        1660            0.0000000000
      4980      1660  TIP3      H2            -31.2063705720      -24.2469124159       -4.4922663352  W2        1660            0.0000000000
      4981      1661  TIP3      OH2           -33.5694705720      -23.0826724159      -12.0027863352  W2        1661            0.0000000000
      4982      1661  TIP3      H1            -34.5194205720      -22.9769324159      -11.9514563352  W2        1661            0.0000000000
      4983      1661  TIP3      H2            -33.2176605720      -22.2619324159      -11.6580363352  W2        1661            0.0000000000
      4984      1662  TIP3      OH2           -28.1938105720      -27.8560024159       -5.5323363352  W2        1662            0.0000000000
      4985      1662  TIP3      H1            -28.6196805720      -28.0838324159       -4.7059363352  W2        1662            0.0000000000
      4986      1662  TIP3      H2            -27.6132305720      -28.5948224159       -5.7148063352  W2        1662            0.0000000000
      4987      1663  TIP3      OH2           -25.9909205720      -26.9269524159      -16.4584363352  W2        1663            0.0000000000
      4988      1663  TIP3      H1            -25.6376105720      -27.3069724159      -15.6540863352  W2        1663            0.0000000000
      4989      1663  TIP3      H2            -26.9395705720      -27.0204724159      -16.3715063352  W2        1663            0.0000000000
      4990      1664  TIP3      OH2           -25.5353905720      -23.3040524159       -3.0628563352  W2        1664            0.0000000000
      4991      1664  TIP3      H1            -26.1370705720      -23.8597624159       -3.5582263352  W2        1664            0.0000000000
      4992      1664  TIP3      H2            -25.2540205720      -22.6370724159       -3.6891163352  W2        1664            0.0000000000
      4993      1665  TIP3      OH2           -21.4874805720      -22.4477024159      -16.2574163352  W2        1665            0.0000000000
      4994      1665  TIP3      H1            -20.7436905720      -21.8616524159      -16.3972563352  W2        1665            0.0000000000
      4995      1665  TIP3      H2            -22.1816705720      -21.8791224159      -15.9241763352  W2        1665            0.0000000000
      4996      1666  TIP3      OH2           -37.4128005720      -36.0712824159       -3.6555963352  W2        1666            0.0000000000
      4997      1666  TIP3      H1            -38.3055705720      -35.7327424159       -3.7231963352  W2        1666            0.0000000000
      4998      1666  TIP3      H2            -37.5115205720      -36.9266724159       -3.2375163352  W2        1666            0.0000000000
      4999      1667  TIP3      OH2           -25.1249905720      -28.2547524159      -14.2316463352  W2        1667            0.0000000000
      5000      1667  TIP3      H1            -25.4022305720      -28.9828224159      -13.6755363352  W2        1667            0.0000000000
      5001      1667  TIP3      H2            -24.1976905720      -28.1355524159      -14.0263863352  W2        1667            0.0000000000
      5002      1668  TIP3      OH2           -37.7616005720      -24.2668424159       -5.2206563352  W2        1668            0.0000000000
      5003      1668  TIP3      H1            -37.5445705720      -25.1986024159       -5.2516863352  W2        1668            0.0000000000
      5004      1668  TIP3      H2            -37.5152505720      -23.9923424159       -4.3373763352  W2        1668            0.0000000000
      5005      1669  TIP3      OH2           -31.9001405720      -25.8153424159      -18.0114363352  W2        1669            0.0000000000
      5006      1669  TIP3      H1            -31.6611605720      -26.5635324159      -18.5585463352  W2        1669            0.0000000000
      5007      1669  TIP3      H2            -32.1690105720      -26.2031724159      -17.1786563352  W2        1669            0.0000000000
      5008      1670  TIP3      OH2           -32.9630805720      -26.2449624159      -15.5551763352  W2        1670            0.0000000000
      5009      1670  TIP3      H1            -32.8162805720      -26.7649824159      -14.7650863352  W2        1670            0.0000000000
      5010      1670  TIP3      H2            -32.9659105720      -25.3382024159      -15.2485863352  W2        1670            0.0000000000
      5011      1671  TIP3      OH2           -36.5099705720      -28.9926324159      -15.0446363352  W2        1671            0.0000000000
      5012      1671  TIP3      H1            -37.1960405720      -28.6403824159      -14.4776663352  W2        1671            0.0000000000
      5013      1671  TIP3      H2            -35.9871805720      -28.2296724159      -15.2912063352  W2        1671            0.0000000000
      5014      1672  TIP3      OH2           -28.6784605720      -36.3302524159       -4.7657363352  W2        1672            0.0000000000
      5015      1672  TIP3      H1            -27.9796705720      -36.2563824159       -4.1157663352  W2        1672            0.0000000000
      5016      1672  TIP3      H2            -29.0593205720      -37.1947524159       -4.6114463352  W2        1672            0.0000000000
      5017      1673  TIP3      OH2           -27.8939705720      -36.6780824159      -13.6685063352  W2        1673            0.0000000000
      5018      1673  TIP3      H1            -27.6741405720      -36.2065424159      -14.4719663352  W2        1673            0.0000000000
      5019      1673  TIP3      H2            -27.3355705720      -36.2838224159      -12.9984463352  W2        1673            0.0000000000
      5020      1674  TIP3      OH2           -30.2253605720      -24.5476024159      -14.8057563352  W2        1674            0.0000000000
      5021      1674  TIP3      H1            -31.0417505720      -24.0506324159      -14.7533263352  W2        1674            0.0000000000
      5022      1674  TIP3      H2            -29.6957305720      -24.0722524159      -15.4458763352  W2        1674            0.0000000000
      5023      1675  TIP3      OH2           -30.6939805720      -34.9502024159      -12.8336663352  W2        1675            0.0000000000
      5024      1675  TIP3      H1            -29.8817205720      -34.4458824159      -12.7874963352  W2        1675            0.0000000000
      5025      1675  TIP3      H2            -30.9386805720      -35.0952324159      -11.9197063352  W2        1675            0.0000000000
      5026      1676  TIP3      OH2           -30.1583405720      -33.9639324159       -3.6490063352  W2        1676            0.0000000000
      5027      1676  TIP3      H1            -30.0393105720      -33.3903924159       -2.8919663352  W2        1676            0.0000000000
      5028      1676  TIP3      H2            -29.5028805720      -34.6519924159       -3.5342263352  W2        1676            0.0000000000
      5029      1677  TIP3      OH2           -29.8103105720      -37.8689024159      -11.8955563352  W2        1677            0.0000000000
      5030      1677  TIP3      H1            -30.1569605720      -37.2518424159      -11.2511263352  W2        1677            0.0000000000
      5031      1677  TIP3      H2            -29.1516205720      -37.3683324159      -12.3770063352  W2        1677            0.0000000000
      5032      1678  TIP3      OH2           -32.8870505720      -23.5038824159      -14.8240663352  W2        1678            0.0000000000
      5033      1678  TIP3      H1            -32.7261805720      -22.7041324159      -15.3248063352  W2        1678            0.0000000000
      5034      1678  TIP3      H2            -33.0842705720      -23.1972824159      -13.9390063352  W2        1678            0.0000000000
      5035      1679  TIP3      OH2           -34.1526105720      -36.8059624159      -15.2083063352  W2        1679            0.0000000000
      5036      1679  TIP3      H1            -34.2361305720      -35.9176524159      -14.8616663352  W2        1679            0.0000000000
      5037      1679  TIP3      H2            -33.2625805720      -37.0712924159      -14.9766263352  W2        1679            0.0000000000
      5038      1680  TIP3      OH2           -23.9537605720      -36.0569024159       -2.8140363352  W2        1680            0.0000000000
      5039      1680  TIP3      H1            -24.8701805720      -35.7947324159       -2.9016663352  W2        1680            0.0000000000
      5040      1680  TIP3      H2            -23.6182605720      -36.0600024159       -3.7105063352  W2        1680            0.0000000000
      5041      1681  TIP3      OH2           -25.3516605720      -32.3068024159       -8.7183063352  W2        1681            0.0000000000
      5042      1681  TIP3      H1            -26.1492205720      -32.7217824159       -9.0468063352  W2        1681            0.0000000000
      5043      1681  TIP3      H2            -24.9065505720      -32.9974324159       -8.2272563352  W2        1681            0.0000000000
      5044      1682  TIP3      OH2           -35.8940805720      -26.3787424159      -16.1478563352  W2        1682            0.0000000000
      5045      1682  TIP3      H1            -35.3019305720      -25.6792624159      -15.8716163352  W2        1682            0.0000000000
      5046      1682  TIP3      H2            -35.4347805720      -26.8117924159      -16.8673963352  W2        1682            0.0000000000
      5047      1683  TIP3      OH2           -37.5781605720      -33.7144424159      -17.0319163352  W2        1683            0.0000000000
      5048      1683  TIP3      H1            -37.6229005720      -32.7751324159      -16.8532163352  W2        1683            0.0000000000
      5049      1683  TIP3      H2            -38.4658405720      -33.9499524159      -17.3017063352  W2        1683            0.0000000000
      5050      1684  TIP3      OH2           -24.2652005720      -23.0505524159       -7.0959563352  W2        1684            0.0000000000
      5051      1684  TIP3      H1            -24.4207705720      -22.3721124159       -7.7530263352  W2        1684            0.0000000000
      5052      1684  TIP3      H2            -23.3325605720      -22.9786224159       -6.8928963352  W2        1684            0.0000000000
      5053      1685  TIP3      OH2           -36.7699605720      -38.9327824159       -8.3588163352  W2        1685            0.0000000000
      5054      1685  TIP3      H1            -36.9989805720      -38.8735324159       -9.2863163352  W2        1685            0.0000000000
      5055      1685  TIP3      H2            -37.2126205720      -39.7242324159       -8.0524063352  W2        1685            0.0000000000
      5056      1686  TIP3      OH2           -37.8396305720      -24.9920724159      -12.1982363352  W2        1686            0.0000000000
      5057      1686  TIP3      H1            -38.6717705720      -24.5198024159      -12.1710963352  W2        1686            0.0000000000
      5058      1686  TIP3      H2            -37.2938005720      -24.4823124159      -12.7969263352  W2        1686            0.0000000000
      5059      1687  TIP3      OH2           -38.5512605720      -22.3797024159       -0.8684363352  W2        1687            0.0000000000
      5060      1687  TIP3      H1            -38.0110405720      -22.5963024159       -0.1085163352  W2        1687            0.0000000000
      5061      1687  TIP3      H2            -39.0324605720      -23.1851024159       -1.0581863352  W2        1687            0.0000000000
      5062      1688  TIP3      OH2           -33.9539205720      -23.4602624159        0.7519836648  W2        1688            0.0000000000
      5063      1688  TIP3      H1            -33.1862005720      -23.9191824159        1.0929036648  W2        1688            0.0000000000
      5064      1688  TIP3      H2            -33.9753005720      -23.6862824159       -0.1778963352  W2        1688            0.0000000000
      5065      1689  TIP3      OH2           -29.8619605720      -23.9522024159      -17.8728363352  W2        1689            0.0000000000
      5066      1689  TIP3      H1            -30.5058605720      -24.5833424159      -17.5514663352  W2        1689            0.0000000000
      5067      1689  TIP3      H2            -29.1001305720      -24.4834024159      -18.1044863352  W2        1689            0.0000000000
      5068      1690  TIP3      OH2           -27.3770505720      -25.0801524159       -0.5188663352  W2        1690            0.0000000000
      5069      1690  TIP3      H1            -27.7281005720      -25.9368524159       -0.2758263352  W2        1690            0.0000000000
      5070      1690  TIP3      H2            -26.6507305720      -24.9374824159        0.0880336648  W2        1690            0.0000000000
      5071      1691  TIP3      OH2           -25.2576705720      -24.1352124159      -17.6390363352  W2        1691            0.0000000000
      5072      1691  TIP3      H1            -24.9746305720      -24.9296924159      -17.1863463352  W2        1691            0.0000000000
      5073      1691  TIP3      H2            -24.5178805720      -23.9021124159      -18.1999263352  W2        1691            0.0000000000
      5074      1692  TIP3      OH2           -38.6443105720      -28.5692924159        0.0859936648  W2        1692            0.0000000000
      5075      1692  TIP3      H1            -38.5002605720      -29.4712224159       -0.2003363352  W2        1692            0.0000000000
      5076      1692  TIP3      H2            -39.4165705720      -28.2830824159       -0.4017763352  W2        1692            0.0000000000
      5077      1693  TIP3      OH2           -34.3029405720      -28.2257224159      -17.7815463352  W2        1693            0.0000000000
      5078      1693  TIP3      H1            -34.2385305720      -29.0197624159      -17.2509063352  W2        1693            0.0000000000
      5079      1693  TIP3      H2            -33.6500205720      -28.3444424159      -18.4713463352  W2        1693            0.0000000000
      5080      1694  TIP3      OH2           -31.9887005720      -28.5994824159       -0.4813663352  W2        1694            0.0000000000
      5081      1694  TIP3      H1            -32.3173205720      -28.3286724159       -1.3386263352  W2        1694            0.0000000000
      5082      1694  TIP3      H2            -31.8368805720      -29.5405024159       -0.5688663352  W2        1694            0.0000000000
      5083      1695  TIP3      OH2           -28.9506005720      -27.1785524159      -18.0457463352  W2        1695            0.0000000000
      5084      1695  TIP3      H1            -29.2191905720      -26.9983424159      -17.1448563352  W2        1695            0.0000000000
      5085      1695  TIP3      H2            -29.1570405720      -28.1039324159      -18.1771663352  W2        1695            0.0000000000
      5086      1696  TIP3      OH2           -26.2541805720      -28.6837524159       -3.0981363352  W2        1696            0.0000000000
      5087      1696  TIP3      H1            -25.5087005720      -28.0953824159       -3.2177363352  W2        1696            0.0000000000
      5088      1696  TIP3      H2            -27.0115005720      -28.1017824159       -3.0348263352  W2        1696            0.0000000000
      5089      1697  TIP3      OH2           -37.8116605720      -31.3689624159       -0.4940763352  W2        1697            0.0000000000
      5090      1697  TIP3      H1            -37.4035405720      -32.2263024159       -0.6150163352  W2        1697            0.0000000000
      5091      1697  TIP3      H2            -38.0719005720      -31.3548324159        0.4269536648  W2        1697            0.0000000000
      5092      1698  TIP3      OH2           -33.1535605720      -30.2531024159      -15.4757463352  W2        1698            0.0000000000
      5093      1698  TIP3      H1            -33.6133605720      -30.7372724159      -14.7898963352  W2        1698            0.0000000000
      5094      1698  TIP3      H2            -32.8986905720      -30.9215624159      -16.1116963352  W2        1698            0.0000000000
      5095      1699  TIP3      OH2           -33.8646305720      -32.3603924159       -3.1197863352  W2        1699            0.0000000000
      5096      1699  TIP3      H1            -34.4830205720      -31.6857324159       -2.8393163352  W2        1699            0.0000000000
      5097      1699  TIP3      H2            -33.5205105720      -32.0390024159       -3.9531663352  W2        1699            0.0000000000
      5098      1700  TIP3      OH2           -32.0825205720      -32.0099224159      -17.2134263352  W2        1700            0.0000000000
      5099      1700  TIP3      H1            -32.2630205720      -32.1648024159      -18.1405963352  W2        1700            0.0000000000
      5100      1700  TIP3      H2            -31.1324705720      -31.9020524159      -17.1686363352  W2        1700            0.0000000000
      5101      1701  TIP3      OH2           -28.8448105720      -29.8888624159        0.1576936648  W2        1701            0.0000000000
      5102      1701  TIP3      H1            -27.8916905720      -29.8049524159        0.1302936648  W2        1701            0.0000000000
      5103      1701  TIP3      H2            -29.0053505720      -30.6006824159        0.7771836648  W2        1701            0.0000000000
      5104      1702  TIP3      OH2           -22.6926905720      -29.6555024159      -17.7676163352  W2        1702            0.0000000000
      5105      1702  TIP3      H1            -22.9662105720      -30.0799524159      -18.5807863352  W2        1702            0.0000000000
      5106      1702  TIP3      H2            -22.6532805720      -28.7240524159      -17.9845763352  W2        1702            0.0000000000
      5107      1703  TIP3      OH2           -33.5252605720      -35.0053124159       -2.0374763352  W2        1703            0.0000000000
      5108      1703  TIP3      H1            -33.3751705720      -35.7341824159       -2.6395063352  W2        1703            0.0000000000
      5109      1703  TIP3      H2            -33.5230205720      -34.2281424159       -2.5962563352  W2        1703            0.0000000000
      5110      1704  TIP3      OH2           -33.1126905720      -36.6357324159       -4.5447363352  W2        1704            0.0000000000
      5111      1704  TIP3      H1            -32.5769405720      -36.1840624159       -5.1968063352  W2        1704            0.0000000000
      5112      1704  TIP3      H2            -33.9647305720      -36.7437524159       -4.9673263352  W2        1704            0.0000000000
      5113      1705  TIP3      OH2           -31.5308505720      -31.1961124159       -4.3052163352  W2        1705            0.0000000000
      5114      1705  TIP3      H1            -30.7803705720      -31.3523624159       -4.8784363352  W2        1705            0.0000000000
      5115      1705  TIP3      H2            -31.8700205720      -30.3444524159       -4.5806663352  W2        1705            0.0000000000
      5116      1706  TIP3      OH2           -27.1152305720      -33.3809324159        0.7233136648  W2        1706            0.0000000000
      5117      1706  TIP3      H1            -26.9231005720      -34.3119924159        0.6117636648  W2        1706            0.0000000000
      5118      1706  TIP3      H2            -26.2576005720      -32.9559824159        0.7128536648  W2        1706            0.0000000000
      5119      1707  TIP3      OH2           -25.7985105720      -30.5924124159       -1.1994163352  W2        1707            0.0000000000
      5120      1707  TIP3      H1            -26.0800105720      -29.8829524159       -1.7770363352  W2        1707            0.0000000000
      5121      1707  TIP3      H2            -24.8560805720      -30.6651124159       -1.3502963352  W2        1707            0.0000000000
      5122      1708  TIP3      OH2           -35.0466305720      -33.8069624159       -0.1259163352  W2        1708            0.0000000000
      5123      1708  TIP3      H1            -35.8137305720      -34.3394824159       -0.3361563352  W2        1708            0.0000000000
      5124      1708  TIP3      H2            -34.3677305720      -34.1169224159       -0.7252863352  W2        1708            0.0000000000
      5125      1709  TIP3      OH2           -32.3071405720      -39.1791624159       -4.1133763352  W2        1709            0.0000000000
      5126      1709  TIP3      H1            -32.4051805720      -38.2328424159       -4.2187563352  W2        1709            0.0000000000
      5127      1709  TIP3      H2            -33.0495205720      -39.5517824159       -4.5890263352  W2        1709            0.0000000000
      5128      1710  TIP3      OH2           -31.0430905720      -34.8576224159       -0.5495363352  W2        1710            0.0000000000
      5129      1710  TIP3      H1            -31.2785505720      -35.0769524159        0.3519536648  W2        1710            0.0000000000
      5130      1710  TIP3      H2            -31.8264005720      -35.0645024159       -1.0592863352  W2        1710            0.0000000000
      5131      1711  TIP3      OH2           -28.3274305720      -35.7302724159       -1.4741863352  W2        1711            0.0000000000
      5132      1711  TIP3      H1            -29.2748905720      -35.6983024159       -1.3418563352  W2        1711            0.0000000000
      5133      1711  TIP3      H2            -28.0147605720      -36.3555624159       -0.8203663352  W2        1711            0.0000000000
      5134      1712  TIP3      OH2           -26.6932805720      -37.0961624159        0.5310036648  W2        1712            0.0000000000
      5135      1712  TIP3      H1            -26.7901005720      -38.0484324159        0.5251936648  W2        1712            0.0000000000
      5136      1712  TIP3      H2            -27.0149705720      -36.8274824159        1.3915536648  W2        1712            0.0000000000
      5137      1713  TIP3      OH2           -36.8663505720      -35.8865824159       -0.4214463352  W2        1713            0.0000000000
      5138      1713  TIP3      H1            -36.6546105720      -36.5929724159       -1.0316963352  W2        1713            0.0000000000
      5139      1713  TIP3      H2            -36.9776005720      -36.3239824159        0.4226736648  W2        1713            0.0000000000
      5140      1714  TIP3      OH2           -32.0853305720      -39.8854224159       -1.4420963352  W2        1714            0.0000000000
      5141      1714  TIP3      H1            -31.3734905720      -40.5252024159       -1.4561863352  W2        1714            0.0000000000
      5142      1714  TIP3      H2            -32.1862905720      -39.6185924159       -2.3557863352  W2        1714            0.0000000000
      5143      1715  TIP3      OH2           -31.7315805720      -38.2025824159        0.6115336648  W2        1715            0.0000000000
      5144      1715  TIP3      H1            -31.8633605720      -38.6782024159       -0.2086163352  W2        1715            0.0000000000
      5145      1715  TIP3      H2            -32.3308405720      -37.4582224159        0.5562436648  W2        1715            0.0000000000
      5146      1716  TIP3      OH2           -32.1853505720      -21.3195524159      -16.2120663352  W2        1716            0.0000000000
      5147      1716  TIP3      H1            -31.2522805720      -21.1616824159      -16.0682263352  W2        1716            0.0000000000
      5148      1716  TIP3      H2            -32.4494705720      -20.6442524159      -16.8369163352  W2        1716            0.0000000000
      5149      1717  TIP3      OH2           -38.6168605720      -26.6831724159      -16.7292563352  W2        1717            0.0000000000
      5150      1717  TIP3      H1            -37.7029405720      -26.6042824159      -16.4558663352  W2        1717            0.0000000000
      5151      1717  TIP3      H2            -38.6095505720      -27.3702124159      -17.3956963352  W2        1717            0.0000000000
      5152      1718  TIP3      OH2           -39.9678005720      -21.2903224159      -11.6518663352  W2        1718            0.0000000000
      5153      1718  TIP3      H1            -40.6150905720      -21.7521524159      -12.1847463352  W2        1718            0.0000000000
      5154      1718  TIP3      H2            -39.6133405720      -21.9619924159      -11.0692463352  W2        1718            0.0000000000
      5155      1719  TIP3      OH2           -39.0978805720      -23.2096224159       -9.8472463352  W2        1719            0.0000000000
      5156      1719  TIP3      H1            -39.4322005720      -24.0898924159       -9.6752263352  W2        1719            0.0000000000
      5157      1719  TIP3      H2            -38.8756405720      -22.8641224159       -8.9826863352  W2        1719            0.0000000000
      5158      1720  TIP3      OH2           -21.5494005720      -22.3999824159       -6.8667663352  W2        1720            0.0000000000
      5159      1720  TIP3      H1            -21.5707305720      -22.2151424159       -5.9278263352  W2        1720            0.0000000000
      5160      1720  TIP3      H2            -20.8587805720      -21.8315824159       -7.2076263352  W2        1720            0.0000000000
      5161      1721  TIP3      OH2           -21.9861105720      -22.8328724159       -3.9448563352  W2        1721            0.0000000000
      5162      1721  TIP3      H1            -22.4732405720      -23.5684624159       -4.3161163352  W2        1721            0.0000000000
      5163      1721  TIP3      H2            -21.4368405720      -23.2264824159       -3.2669163352  W2        1721            0.0000000000
      5164      1722  TIP3      OH2           -23.5353805720      -27.0430624159        0.6931736648  W2        1722            0.0000000000
      5165      1722  TIP3      H1            -24.4012705720      -27.1480924159        1.0874036648  W2        1722            0.0000000000
      5166      1722  TIP3      H2            -23.1587905720      -26.2847324159        1.1396436648  W2        1722            0.0000000000
      5167      1723  TIP3      OH2           -22.2344105720      -28.7866924159      -13.7925763352  W2        1723            0.0000000000
      5168      1723  TIP3      H1            -21.3842705720      -28.3656024159      -13.6654163352  W2        1723            0.0000000000
      5169      1723  TIP3      H2            -22.2289005720      -29.5266824159      -13.1854363352  W2        1723            0.0000000000
      5170      1724  TIP3      OH2           -21.8398505720      -30.7329524159      -11.9690063352  W2        1724            0.0000000000
      5171      1724  TIP3      H1            -22.5663905720      -31.2126924159      -11.5712463352  W2        1724            0.0000000000
      5172      1724  TIP3      H2            -21.2585205720      -30.5274824159      -11.2368463352  W2        1724            0.0000000000
      5173      1725  TIP3      OH2           -22.0807305720      -27.9482024159       -7.0212463352  W2        1725            0.0000000000
      5174      1725  TIP3      H1            -21.2473105720      -28.3262024159       -7.3018863352  W2        1725            0.0000000000
      5175      1725  TIP3      H2            -21.9687005720      -27.0050824159       -7.1403363352  W2        1725            0.0000000000
      5176      1726  TIP3      OH2           -23.5945005720      -25.0704524159       -4.7144063352  W2        1726            0.0000000000
      5177      1726  TIP3      H1            -24.2419705720      -24.7453024159       -4.0888863352  W2        1726            0.0000000000
      5178      1726  TIP3      H2            -24.1121005720      -25.5106824159       -5.3885763352  W2        1726            0.0000000000
      5179      1727  TIP3      OH2           -21.5715405720      -30.8321024159      -15.5778763352  W2        1727            0.0000000000
      5180      1727  TIP3      H1            -22.0934305720      -30.4756924159      -16.2967863352  W2        1727            0.0000000000
      5181      1727  TIP3      H2            -21.6046205720      -30.1573224159      -14.8997863352  W2        1727            0.0000000000
      5182      1728  TIP3      OH2           -23.2226405720      -33.5925424159      -17.0271663352  W2        1728            0.0000000000
      5183      1728  TIP3      H1            -23.1262005720      -32.9258424159      -17.7071963352  W2        1728            0.0000000000
      5184      1728  TIP3      H2            -23.3626805720      -34.4079124159      -17.5086163352  W2        1728            0.0000000000
      5185      1729  TIP3      OH2           -24.0531705720      -32.2123024159      -11.4061363352  W2        1729            0.0000000000
      5186      1729  TIP3      H1            -24.2032905720      -33.1574424159      -11.4263563352  W2        1729            0.0000000000
      5187      1729  TIP3      H2            -24.4067205720      -31.9311624159      -10.5622263352  W2        1729            0.0000000000
      5188      1730  TIP3      OH2           -39.0179305720      -30.1340824159       -7.3957563352  W2        1730            0.0000000000
      5189      1730  TIP3      H1            -38.8336405720      -30.2159124159       -8.3314663352  W2        1730            0.0000000000
      5190      1730  TIP3      H2            -38.1686405720      -30.2583824159       -6.9721163352  W2        1730            0.0000000000
      5191      1731  TIP3      OH2           -23.1968805720      -30.2419724159       -1.7673063352  W2        1731            0.0000000000
      5192      1731  TIP3      H1            -22.6141505720      -30.9767424159       -1.5755863352  W2        1731            0.0000000000
      5193      1731  TIP3      H2            -22.6329505720      -29.4699424159       -1.7207263352  W2        1731            0.0000000000
      5194      1732  TIP3      OH2           -21.7001705720      -32.3393924159       -1.0827663352  W2        1732            0.0000000000
      5195      1732  TIP3      H1            -22.5635005720      -32.7181824159       -1.2482963352  W2        1732            0.0000000000
      5196      1732  TIP3      H2            -21.0958005720      -33.0779124159       -1.1571863352  W2        1732            0.0000000000
      5197      1733  TIP3      OH2           -23.9752605720      -36.1845624159      -17.9096163352  W2        1733            0.0000000000
      5198      1733  TIP3      H1            -23.3646805720      -36.5558824159      -17.2727963352  W2        1733            0.0000000000
      5199      1733  TIP3      H2            -24.8121105720      -36.6058724159      -17.7136163352  W2        1733            0.0000000000
      5200      1734  TIP3      OH2           -24.3426905720      -34.6297224159      -12.9436263352  W2        1734            0.0000000000
      5201      1734  TIP3      H1            -24.0629805720      -35.5366824159      -12.8194563352  W2        1734            0.0000000000
      5202      1734  TIP3      H2            -23.5835205720      -34.1955724159      -13.3327063352  W2        1734            0.0000000000
      5203      1735  TIP3      OH2           -23.7308605720      -34.0479824159       -7.5077363352  W2        1735            0.0000000000
      5204      1735  TIP3      H1            -22.7980605720      -33.8359924159       -7.5421363352  W2        1735            0.0000000000
      5205      1735  TIP3      H2            -23.9661105720      -33.9467724159       -6.5854363352  W2        1735            0.0000000000
      5206      1736  TIP3      OH2           -23.7016705720      -33.3114524159       -4.7317963352  W2        1736            0.0000000000
      5207      1736  TIP3      H1            -24.5445405720      -33.0434124159       -4.3658163352  W2        1736            0.0000000000
      5208      1736  TIP3      H2            -23.2592405720      -32.4892624159       -4.9426863352  W2        1736            0.0000000000
      5209      1737  TIP3      OH2           -39.4204505720      -34.8635824159       -1.2548763352  W2        1737            0.0000000000
      5210      1737  TIP3      H1            -38.5009605720      -34.9857524159       -1.0185663352  W2        1737            0.0000000000
      5211      1737  TIP3      H2            -39.8700005720      -35.6136124159       -0.8655263352  W2        1737            0.0000000000
      5212      1738  TIP3      OH2           -21.4185105720      -39.3314324159        0.6217036648  W2        1738            0.0000000000
      5213      1738  TIP3      H1            -21.0688105720      -39.9850824159        0.0161736648  W2        1738            0.0000000000
      5214      1738  TIP3      H2            -21.2715605720      -38.4940224159        0.1819636648  W2        1738            0.0000000000
      5215      1739  TIP3      OH2           -23.7292105720      -37.3667924159      -12.8954263352  W2        1739            0.0000000000
      5216      1739  TIP3      H1            -23.5467105720      -37.8156424159      -12.0699263352  W2        1739            0.0000000000
      5217      1739  TIP3      H2            -24.3289205720      -37.9513524159      -13.3589663352  W2        1739            0.0000000000
      5218      1740  TIP3      OH2           -38.1992005720      -36.5514224159       -8.3635863352  W2        1740            0.0000000000
      5219      1740  TIP3      H1            -37.7540405720      -37.3431724159       -8.0616163352  W2        1740            0.0000000000
      5220      1740  TIP3      H2            -37.7329005720      -35.8349024159       -7.9330263352  W2        1740            0.0000000000
      5221      1741  TIP3      OH2           -39.8951705720      -33.5521224159       -7.2945663352  W2        1741            0.0000000000
      5222      1741  TIP3      H1            -39.4031905720      -33.7730724159       -8.0853663352  W2        1741            0.0000000000
      5223      1741  TIP3      H2            -39.5330805720      -32.7117824159       -7.0136163352  W2        1741            0.0000000000
      5224      1742  TIP3      OH2           -21.8987905720      -37.2219724159       -1.0291663352  W2        1742            0.0000000000
      5225      1742  TIP3      H1            -22.8162205720      -36.9512624159       -1.0648163352  W2        1742            0.0000000000
      5226      1742  TIP3      H2            -21.7758505720      -37.7571324159       -1.8131963352  W2        1742            0.0000000000
      5227      1743  TIP3      OH2           -21.8625905720      -37.2989824159      -16.3673963352  W2        1743            0.0000000000
      5228      1743  TIP3      H1            -21.4503305720      -38.0204124159      -16.8425963352  W2        1743            0.0000000000
      5229      1743  TIP3      H2            -21.1809405720      -36.6295224159      -16.3089663352  W2        1743            0.0000000000
      5230      1744  TIP3      OH2           -39.5815205720      -37.2942124159      -13.2403263352  W2        1744            0.0000000000
      5231      1744  TIP3      H1            -40.5066805720      -37.0855524159      -13.3697763352  W2        1744            0.0000000000
      5232      1744  TIP3      H2            -39.1275305720      -36.8101324159      -13.9300963352  W2        1744            0.0000000000
      5233      1745  TIP3      OH2           -24.8108005720      -22.3100424159      -11.2945863352  W2        1745            0.0000000000
      5234      1745  TIP3      H1            -24.1585105720      -22.6578324159      -11.9026763352  W2        1745            0.0000000000
      5235      1745  TIP3      H2            -24.3004205720      -21.8217224159      -10.6486163352  W2        1745            0.0000000000
      5236      1746  TIP3      OH2           -39.6179805720      -38.5563124159       -4.8960763352  W2        1746            0.0000000000
      5237      1746  TIP3      H1            -40.2829305720      -38.8022824159       -4.2529863352  W2        1746            0.0000000000
      5238      1746  TIP3      H2            -40.0608505720      -37.9342724159       -5.4732763352  W2        1746            0.0000000000
      5239      1747  TIP3      OH2           -37.4260505720      -25.3809024159       -0.7514963352  W2        1747            0.0000000000
      5240      1747  TIP3      H1            -38.2468005720      -25.2062524159       -1.2120263352  W2        1747            0.0000000000
      5241      1747  TIP3      H2            -37.6782705720      -25.4544324159        0.1689436648  W2        1747            0.0000000000
      5242      1748  TIP3      OH2           -34.4717605720      -24.4067824159       -4.4930963352  W2        1748            0.0000000000
      5243      1748  TIP3      H1            -34.8966505720      -23.5969324159       -4.7756363352  W2        1748            0.0000000000
      5244      1748  TIP3      H2            -33.5674805720      -24.3213724159       -4.7951163352  W2        1748            0.0000000000
      5245      1749  TIP3      OH2           -30.1606205720      -23.0077824159       -1.5337263352  W2        1749            0.0000000000
      5246      1749  TIP3      H1            -29.9758705720      -23.3411724159       -0.6556963352  W2        1749            0.0000000000
      5247      1749  TIP3      H2            -29.3141705720      -22.6979224159       -1.8558063352  W2        1749            0.0000000000
      5248      1750  TIP3      OH2           -27.8155805720      -21.7218924159       -2.2895863352  W2        1750            0.0000000000
      5249      1750  TIP3      H1            -27.1386905720      -22.3546624159       -2.5296663352  W2        1750            0.0000000000
      5250      1750  TIP3      H2            -27.4937005720      -21.3208424159       -1.4822563352  W2        1750            0.0000000000
      5251      1751  TIP3      OH2           -22.8982005720      -39.1323424159       -3.2100863352  W2        1751            0.0000000000
      5252      1751  TIP3      H1            -23.7108505720      -38.8073124159       -3.5976163352  W2        1751            0.0000000000
      5253      1751  TIP3      H2            -22.6653505720      -39.8924924159       -3.7431763352  W2        1751            0.0000000000
      5254      1752  TIP3      OH2           -37.0700905720      -21.1503924159       -4.4455663352  W2        1752            0.0000000000
      5255      1752  TIP3      H1            -37.7904505720      -20.7102924159       -4.8967963352  W2        1752            0.0000000000
      5256      1752  TIP3      H2            -37.4356905720      -21.4009224159       -3.5971663352  W2        1752            0.0000000000
      5257      1753  TIP3      OH2           -34.6028305720      -21.5500024159       -5.4158463352  W2        1753            0.0000000000
      5258      1753  TIP3      H1            -35.4676105720      -21.4781524159       -5.0118363352  W2        1753            0.0000000000
      5259      1753  TIP3      H2            -34.6579305720      -21.0032724159       -6.1995963352  W2        1753            0.0000000000
      5260      1754  TIP3      OH2           -29.8922705720      -21.6621124159       -6.2402463352  W2        1754            0.0000000000
      5261      1754  TIP3      H1            -30.3488705720      -21.1331424159       -6.8944063352  W2        1754            0.0000000000
      5262      1754  TIP3      H2            -29.7294705720      -21.0589724159       -5.5150163352  W2        1754            0.0000000000
      5263      1755  TIP3      OH2           -27.5646405720      -22.7841524159       -5.2952163352  W2        1755            0.0000000000
      5264      1755  TIP3      H1            -28.4692705720      -22.6191324159       -5.5610063352  W2        1755            0.0000000000
      5265      1755  TIP3      H2            -27.1357805720      -21.9309324159       -5.3608763352  W2        1755            0.0000000000
      5266      1756  TIP3      OH2           -24.9604505720      -21.2142424159       -5.0004363352  W2        1756            0.0000000000
      5267      1756  TIP3      H1            -25.1422505720      -20.2983524159       -5.2109463352  W2        1756            0.0000000000
      5268      1756  TIP3      H2            -24.7836705720      -21.6245324159       -5.8469763352  W2        1756            0.0000000000
      5269      1757  TIP3      OH2           -37.6552805720      -22.5271424159       -7.5353863352  W2        1757            0.0000000000
      5270      1757  TIP3      H1            -37.6736805720      -22.9526324159       -6.6781563352  W2        1757            0.0000000000
      5271      1757  TIP3      H2            -36.8504905720      -22.8456424159       -7.9441663352  W2        1757            0.0000000000
      5272      1758  TIP3      OH2           -35.5139705720      -23.8172724159       -8.8803963352  W2        1758            0.0000000000
      5273      1758  TIP3      H1            -35.7329005720      -24.7335324159       -8.7107963352  W2        1758            0.0000000000
      5274      1758  TIP3      H2            -34.6897505720      -23.6772324159       -8.4142563352  W2        1758            0.0000000000
      5275      1759  TIP3      OH2           -32.9767205720      -23.3473424159       -8.0315963352  W2        1759            0.0000000000
      5276      1759  TIP3      H1            -32.7641505720      -24.2354424159       -8.3185063352  W2        1759            0.0000000000
      5277      1759  TIP3      H2            -32.9122105720      -23.3815724159       -7.0771963352  W2        1759            0.0000000000
      5278      1760  TIP3      OH2           -29.4683505720      -37.6832824159       -8.8872663352  W2        1760            0.0000000000
      5279      1760  TIP3      H1            -30.1426705720      -38.3127224159       -8.6316863352  W2        1760            0.0000000000
      5280      1760  TIP3      H2            -28.9044305720      -38.1673924159       -9.4904763352  W2        1760            0.0000000000
      5281      1761  TIP3      OH2           -24.3256305720      -39.5758824159       -8.7745563352  W2        1761            0.0000000000
      5282      1761  TIP3      H1            -23.7218705720      -39.0283424159       -9.2764563352  W2        1761            0.0000000000
      5283      1761  TIP3      H2            -25.1954305720      -39.2568424159       -9.0151463352  W2        1761            0.0000000000
      5284      1762  TIP3      OH2           -22.5985905720      -38.4370124159      -10.4414663352  W2        1762            0.0000000000
      5285      1762  TIP3      H1            -21.9868405720      -38.9514424159      -10.9681063352  W2        1762            0.0000000000
      5286      1762  TIP3      H2            -22.2162505720      -37.5598024159      -10.4180263352  W2        1762            0.0000000000
      5287      1763  TIP3      OH2           -37.1416005720      -39.0492524159      -11.0652763352  W2        1763            0.0000000000
      5288      1763  TIP3      H1            -37.9186205720      -39.2837624159      -11.5726863352  W2        1763            0.0000000000
      5289      1763  TIP3      H2            -36.6112405720      -39.8460424159      -11.0564763352  W2        1763            0.0000000000
      5290      1764  TIP3      OH2           -38.3052605720      -39.2514424159      -15.2616663352  W2        1764            0.0000000000
      5291      1764  TIP3      H1            -37.8661905720      -38.6403924159      -15.8533163352  W2        1764            0.0000000000
      5292      1764  TIP3      H2            -38.9390205720      -38.7130324159      -14.7876663352  W2        1764            0.0000000000
      5293      1765  TIP3      OH2           -32.5623405720      -39.1225424159      -11.2519663352  W2        1765            0.0000000000
      5294      1765  TIP3      H1            -31.6880005720      -38.7341124159      -11.2815363352  W2        1765            0.0000000000
      5295      1765  TIP3      H2            -32.6982605720      -39.3377624159      -10.3292463352  W2        1765            0.0000000000
      5296      1766  TIP3      OH2           -27.0055005720      -39.0925624159       -9.6027963352  W2        1766            0.0000000000
      5297      1766  TIP3      H1            -26.9293405720      -38.9974024159      -10.5521963352  W2        1766            0.0000000000
      5298      1766  TIP3      H2            -27.2805805720      -40.0002724159       -9.4738863352  W2        1766            0.0000000000
      5299      1767  TIP3      OH2           -25.6522405720      -39.0667824159      -13.9102963352  W2        1767            0.0000000000
      5300      1767  TIP3      H1            -26.3551305720      -38.4518624159      -14.1201563352  W2        1767            0.0000000000
      5301      1767  TIP3      H2            -26.0971005720      -39.9041124159      -13.7792063352  W2        1767            0.0000000000
      5302      1768  TIP3      OH2           -38.4043105720      -23.3032224159      -14.3641563352  W2        1768            0.0000000000
      5303      1768  TIP3      H1            -39.0893205720      -23.3413324159      -15.0316463352  W2        1768            0.0000000000
      5304      1768  TIP3      H2            -38.4005905720      -22.3904624159      -14.0759463352  W2        1768            0.0000000000
      5305      1769  TIP3      OH2           -36.4443505720      -37.3352924159      -16.8192563352  W2        1769            0.0000000000
      5306      1769  TIP3      H1            -35.9530105720      -37.9650524159      -17.3467063352  W2        1769            0.0000000000
      5307      1769  TIP3      H2            -35.8207205720      -37.0393524159      -16.1561363352  W2        1769            0.0000000000
      5308      1770  TIP3      OH2           -31.4183405720      -37.0421424159      -14.3622063352  W2        1770            0.0000000000
      5309      1770  TIP3      H1            -31.2402105720      -37.6888224159      -13.6793463352  W2        1770            0.0000000000
      5310      1770  TIP3      H2            -31.4717205720      -36.2083724159      -13.8950963352  W2        1770            0.0000000000
      5311      1771  TIP3      OH2           -29.5399605720      -22.0937324159      -15.9665363352  W2        1771            0.0000000000
      5312      1771  TIP3      H1            -28.6739405720      -21.7269924159      -16.1447163352  W2        1771            0.0000000000
      5313      1771  TIP3      H2            -29.7866805720      -22.5329324159      -16.7804563352  W2        1771            0.0000000000
      5314      1772  TIP3      OH2           -22.8310005720      -22.5307024159      -13.2874263352  W2        1772            0.0000000000
      5315      1772  TIP3      H1            -23.0252905720      -23.2784924159      -13.8524663352  W2        1772            0.0000000000
      5316      1772  TIP3      H2            -22.8699905720      -21.7726924159      -13.8706363352  W2        1772            0.0000000000
      5317      1773  TIP3      OH2           -37.1838005720      -38.5350624159       -1.5476563352  W2        1773            0.0000000000
      5318      1773  TIP3      H1            -37.5499805720      -39.3008024159       -1.1051863352  W2        1773            0.0000000000
      5319      1773  TIP3      H2            -36.2709505720      -38.5060424159       -1.2611463352  W2        1773            0.0000000000
      5320      1774  TIP3      OH2           -35.2107205720      -39.1846224159       -0.0119463352  W2        1774            0.0000000000
      5321      1774  TIP3      H1            -34.3123605720      -39.4586024159       -0.1966063352  W2        1774            0.0000000000
      5322      1774  TIP3      H2            -35.5974105720      -39.9270224159        0.4523136648  W2        1774            0.0000000000
      5323      1775  TIP3      OH2           -36.5861905720      -22.3831424159      -17.3389463352  W2        1775            0.0000000000
      5324      1775  TIP3      H1            -36.8537305720      -22.0968524159      -16.4656363352  W2        1775            0.0000000000
      5325      1775  TIP3      H2            -35.8149305720      -22.9292224159      -17.1866963352  W2        1775            0.0000000000
      5326      1776  TIP3      OH2           -26.7894905720      -39.8520924159        0.1703336648  W2        1776            0.0000000000
      5327      1776  TIP3      H1            -26.7127705720      -40.2780224159        1.0241036648  W2        1776            0.0000000000
      5328      1776  TIP3      H2            -25.8958305720      -39.8386224159       -0.1723163352  W2        1776            0.0000000000
      5329      1777  TIP3      OH2           -23.6133805720      -23.7794624159       -1.1372463352  W2        1777            0.0000000000
      5330      1777  TIP3      H1            -24.3951905720      -23.9656624159       -1.6571863352  W2        1777            0.0000000000
      5331      1777  TIP3      H2            -23.6853905720      -22.8500324159       -0.9199963352  W2        1777            0.0000000000
      5332      1778  TIP3      OH2            -9.2073405720      -29.8930224159      -11.1065263352  W2        1778            0.0000000000
      5333      1778  TIP3      H1             -9.1182305720      -28.9492024159      -11.2388163352  W2        1778            0.0000000000
      5334      1778  TIP3      H2             -9.8455805720      -30.1683824159      -11.7645863352  W2        1778            0.0000000000
      5335      1779  TIP3      OH2           -10.2742105720      -30.6379524159       -7.6877063352  W2        1779            0.0000000000
      5336      1779  TIP3      H1            -10.3124605720      -31.2843224159       -6.9827463352  W2        1779            0.0000000000
      5337      1779  TIP3      H2            -10.5965605720      -31.1045124159       -8.4588363352  W2        1779            0.0000000000
      5338      1780  TIP3      OH2           -17.9057105720      -31.0237424159       -6.0947163352  W2        1780            0.0000000000
      5339      1780  TIP3      H1            -17.8645005720      -31.6494124159       -5.3714763352  W2        1780            0.0000000000
      5340      1780  TIP3      H2            -17.2029405720      -30.3998824159       -5.9126763352  W2        1780            0.0000000000
      5341      1781  TIP3      OH2            -6.5681905720      -27.6989124159       -9.3861963352  W2        1781            0.0000000000
      5342      1781  TIP3      H1             -7.0089205720      -28.4193124159       -8.9356363352  W2        1781            0.0000000000
      5343      1781  TIP3      H2             -6.5812205720      -26.9781924159       -8.7564263352  W2        1781            0.0000000000
      5344      1782  TIP3      OH2           -16.9824005720      -26.5738524159       -7.5598063352  W2        1782            0.0000000000
      5345      1782  TIP3      H1            -17.3518805720      -27.3758024159       -7.9293763352  W2        1782            0.0000000000
      5346      1782  TIP3      H2            -16.0412905720      -26.7423624159       -7.5134663352  W2        1782            0.0000000000
      5347      1783  TIP3      OH2           -20.3723505720      -32.9135924159      -12.1669263352  W2        1783            0.0000000000
      5348      1783  TIP3      H1            -20.8200105720      -32.0677224159      -12.1852763352  W2        1783            0.0000000000
      5349      1783  TIP3      H2            -20.9332305720      -33.4931724159      -12.6824163352  W2        1783            0.0000000000
      5350      1784  TIP3      OH2           -19.6617405720      -30.7516324159      -10.0411263352  W2        1784            0.0000000000
      5351      1784  TIP3      H1            -19.4483905720      -31.5214724159       -9.5138263352  W2        1784            0.0000000000
      5352      1784  TIP3      H2            -18.9239805720      -30.6619624159      -10.6443663352  W2        1784            0.0000000000
      5353      1785  TIP3      OH2            -9.4566405720      -22.5947424159       -9.1741563352  W2        1785            0.0000000000
      5354      1785  TIP3      H1             -8.8370005720      -23.2712724159       -9.4472363352  W2        1785            0.0000000000
      5355      1785  TIP3      H2             -9.6649005720      -22.8126624159       -8.2656663352  W2        1785            0.0000000000
      5356      1786  TIP3      OH2           -11.8847705720      -28.2058124159       -7.2816063352  W2        1786            0.0000000000
      5357      1786  TIP3      H1            -11.5809805720      -28.8916724159       -7.8761963352  W2        1786            0.0000000000
      5358      1786  TIP3      H2            -11.1633705720      -28.0869424159       -6.6638063352  W2        1786            0.0000000000
      5359      1787  TIP3      OH2            -3.2217905720      -36.6042824159       -6.4209863352  W2        1787            0.0000000000
      5360      1787  TIP3      H1             -3.1725705720      -35.9941624159       -5.6850763352  W2        1787            0.0000000000
      5361      1787  TIP3      H2             -2.7962805720      -36.1431924159       -7.1438763352  W2        1787            0.0000000000
      5362      1788  TIP3      OH2            -8.7440705720      -33.8115724159       -6.9541263352  W2        1788            0.0000000000
      5363      1788  TIP3      H1             -8.6014805720      -34.7578724159       -6.9339663352  W2        1788            0.0000000000
      5364      1788  TIP3      H2             -8.8501705720      -33.6045924159       -7.8826363352  W2        1788            0.0000000000
      5365      1789  TIP3      OH2           -15.5892405720      -35.7099324159       -9.6816463352  W2        1789            0.0000000000
      5366      1789  TIP3      H1            -15.5461305720      -34.8500824159      -10.1000163352  W2        1789            0.0000000000
      5367      1789  TIP3      H2            -16.0468305720      -36.2624624159      -10.3153263352  W2        1789            0.0000000000
      5368      1790  TIP3      OH2            -7.8669705720      -35.5793724159      -11.2808163352  W2        1790            0.0000000000
      5369      1790  TIP3      H1             -7.2205405720      -35.9080524159      -10.6560563352  W2        1790            0.0000000000
      5370      1790  TIP3      H2             -7.3570305720      -35.0614724159      -11.9036763352  W2        1790            0.0000000000
      5371      1791  TIP3      OH2           -18.9690905720      -33.3133524159       -8.9195063352  W2        1791            0.0000000000
      5372      1791  TIP3      H1            -18.3154305720      -33.8631824159       -8.4874963352  W2        1791            0.0000000000
      5373      1791  TIP3      H2            -18.9451605720      -33.5874524159       -9.8363063352  W2        1791            0.0000000000
      5374      1792  TIP3      OH2           -13.8126405720      -31.7632224159       -9.7043563352  W2        1792            0.0000000000
      5375      1792  TIP3      H1            -13.1965405720      -32.2896824159       -9.1949563352  W2        1792            0.0000000000
      5376      1792  TIP3      H2            -14.3987605720      -32.4033524159      -10.1079963352  W2        1792            0.0000000000
      5377      1793  TIP3      OH2            -2.8303305720      -35.1263624159       -4.1850063352  W2        1793            0.0000000000
      5378      1793  TIP3      H1             -3.5188705720      -34.4682924159       -4.2803463352  W2        1793            0.0000000000
      5379      1793  TIP3      H2             -2.8148705720      -35.3235724159       -3.2484663352  W2        1793            0.0000000000
      5380      1794  TIP3      OH2           -16.7790505720      -36.7920924159       -5.6075663352  W2        1794            0.0000000000
      5381      1794  TIP3      H1            -16.9978805720      -36.2620324159       -6.3739663352  W2        1794            0.0000000000
      5382      1794  TIP3      H2            -17.4469605720      -36.5655424159       -4.9604263352  W2        1794            0.0000000000
      5383      1795  TIP3      OH2            -9.4100705720      -27.2919824159      -12.0636563352  W2        1795            0.0000000000
      5384      1795  TIP3      H1             -9.7055605720      -27.6147524159      -12.9149663352  W2        1795            0.0000000000
      5385      1795  TIP3      H2             -9.7342905720      -26.3923124159      -12.0223963352  W2        1795            0.0000000000
      5386      1796  TIP3      OH2           -14.2099105720      -29.1165224159       -5.3201963352  W2        1796            0.0000000000
      5387      1796  TIP3      H1            -14.9500005720      -28.5183724159       -5.2166763352  W2        1796            0.0000000000
      5388      1796  TIP3      H2            -13.4959605720      -28.5625624159       -5.6358363352  W2        1796            0.0000000000
      5389      1797  TIP3      OH2            -6.1031305720      -36.2884424159       -9.3002263352  W2        1797            0.0000000000
      5390      1797  TIP3      H1             -6.3183305720      -37.0541024159       -8.7676263352  W2        1797            0.0000000000
      5391      1797  TIP3      H2             -5.4473905720      -35.8159824159       -8.7873763352  W2        1797            0.0000000000
      5392      1798  TIP3      OH2           -17.1853205720      -34.8999124159       -7.6553463352  W2        1798            0.0000000000
      5393      1798  TIP3      H1            -16.5716905720      -34.2671524159       -7.2821063352  W2        1798            0.0000000000
      5394      1798  TIP3      H2            -16.6732505720      -35.3724124159       -8.3116563352  W2        1798            0.0000000000
      5395      1799  TIP3      OH2           -15.8024805720      -27.1522224159       -4.5330463352  W2        1799            0.0000000000
      5396      1799  TIP3      H1            -15.8077205720      -26.2728724159       -4.9111163352  W2        1799            0.0000000000
      5397      1799  TIP3      H2            -16.6560705720      -27.2358124159       -4.1080563352  W2        1799            0.0000000000
      5398      1800  TIP3      OH2           -19.6813905720      -27.4814324159      -13.7511163352  W2        1800            0.0000000000
      5399      1800  TIP3      H1            -19.9533005720      -27.2523324159      -14.6398263352  W2        1800            0.0000000000
      5400      1800  TIP3      H2            -19.6358205720      -26.6435524159      -13.2905863352  W2        1800            0.0000000000
      5401      1801  TIP3      OH2            -6.0564205720      -25.8598424159       -7.0382663352  W2        1801            0.0000000000
      5402      1801  TIP3      H1             -6.9980505720      -25.8014524159       -6.8765763352  W2        1801            0.0000000000
      5403      1801  TIP3      H2             -5.7798105720      -24.9537924159       -7.1752963352  W2        1801            0.0000000000
      5404      1802  TIP3      OH2            -5.7557205720      -37.5733124159       -5.6208763352  W2        1802            0.0000000000
      5405      1802  TIP3      H1             -6.4918005720      -36.9626024159       -5.6587463352  W2        1802            0.0000000000
      5406      1802  TIP3      H2             -5.0723205720      -37.1584124159       -6.1472363352  W2        1802            0.0000000000
      5407      1803  TIP3      OH2           -12.7525805720      -39.4865824159       -8.1550763352  W2        1803            0.0000000000
      5408      1803  TIP3      H1            -12.8701605720      -40.4349824159       -8.2092463352  W2        1803            0.0000000000
      5409      1803  TIP3      H2            -13.6075705720      -39.1539724159       -7.8819663352  W2        1803            0.0000000000
      5410      1804  TIP3      OH2            -7.8043005720      -24.0784924159      -10.4131063352  W2        1804            0.0000000000
      5411      1804  TIP3      H1             -7.3790705720      -24.7857024159      -10.8981463352  W2        1804            0.0000000000
      5412      1804  TIP3      H2             -7.4873005720      -23.2772224159      -10.8298863352  W2        1804            0.0000000000
      5413      1805  TIP3      OH2            -6.6446505720      -26.1776424159      -11.9044463352  W2        1805            0.0000000000
      5414      1805  TIP3      H1             -6.9021705720      -26.8676324159      -12.5158563352  W2        1805            0.0000000000
      5415      1805  TIP3      H2             -6.5735705720      -26.6205224159      -11.0588563352  W2        1805            0.0000000000
      5416      1806  TIP3      OH2            -4.9586305720      -27.6109724159       -3.4270963352  W2        1806            0.0000000000
      5417      1806  TIP3      H1             -4.8190005720      -28.2027224159       -4.1663963352  W2        1806            0.0000000000
      5418      1806  TIP3      H2             -4.7913505720      -26.7383824159       -3.7832163352  W2        1806            0.0000000000
      5419      1807  TIP3      OH2           -10.4860905720      -30.6490224159      -13.6544963352  W2        1807            0.0000000000
      5420      1807  TIP3      H1            -11.1975405720      -30.1140524159      -14.0064463352  W2        1807            0.0000000000
      5421      1807  TIP3      H2             -9.7951305720      -30.5938124159      -14.3146063352  W2        1807            0.0000000000
      5422      1808  TIP3      OH2           -10.4321705720      -32.1915924159      -16.6159963352  W2        1808            0.0000000000
      5423      1808  TIP3      H1             -9.7311805720      -32.1689024159      -15.9645963352  W2        1808            0.0000000000
      5424      1808  TIP3      H2            -10.1298805720      -32.8196224159      -17.2720663352  W2        1808            0.0000000000
      5425      1809  TIP3      OH2            -3.1167005720      -31.2711724159       -5.3610563352  W2        1809            0.0000000000
      5426      1809  TIP3      H1             -3.7692905720      -30.5766124159       -5.2719663352  W2        1809            0.0000000000
      5427      1809  TIP3      H2             -2.6516705720      -31.0610824159       -6.1708963352  W2        1809            0.0000000000
      5428      1810  TIP3      OH2            -7.0803205720      -30.4396924159      -12.7029063352  W2        1810            0.0000000000
      5429      1810  TIP3      H1             -7.8122205720      -30.2113224159      -12.1298463352  W2        1810            0.0000000000
      5430      1810  TIP3      H2             -6.6331005720      -31.1534224159      -12.2481563352  W2        1810            0.0000000000
      5431      1811  TIP3      OH2            -7.1829705720      -32.2654324159       -3.6352063352  W2        1811            0.0000000000
      5432      1811  TIP3      H1             -7.1030605720      -31.5019924159       -3.0633563352  W2        1811            0.0000000000
      5433      1811  TIP3      H2             -7.7842005720      -31.9861924159       -4.3256963352  W2        1811            0.0000000000
      5434      1812  TIP3      OH2           -15.4349505720      -29.8090724159      -10.8204063352  W2        1812            0.0000000000
      5435      1812  TIP3      H1            -15.7654305720      -30.1797324159      -11.6387063352  W2        1812            0.0000000000
      5436      1812  TIP3      H2            -14.8465405720      -30.4796724159      -10.4735763352  W2        1812            0.0000000000
      5437      1813  TIP3      OH2           -14.0682005720      -26.3810124159       -8.1391863352  W2        1813            0.0000000000
      5438      1813  TIP3      H1            -14.1630705720      -26.9597024159       -8.8957263352  W2        1813            0.0000000000
      5439      1813  TIP3      H2            -13.3388405720      -26.7524424159       -7.6429063352  W2        1813            0.0000000000
      5440      1814  TIP3      OH2           -15.0684005720      -31.0405124159       -7.1869063352  W2        1814            0.0000000000
      5441      1814  TIP3      H1            -14.5031505720      -30.9190924159       -7.9497863352  W2        1814            0.0000000000
      5442      1814  TIP3      H2            -14.7495105720      -30.4030124159       -6.5480563352  W2        1814            0.0000000000
      5443      1815  TIP3      OH2            -8.7591805720      -25.5373224159       -6.4528563352  W2        1815            0.0000000000
      5444      1815  TIP3      H1             -8.9995205720      -24.8750124159       -5.8049363352  W2        1815            0.0000000000
      5445      1815  TIP3      H2             -8.9573605720      -26.3718024159       -6.0278963352  W2        1815            0.0000000000
      5446      1816  TIP3      OH2           -14.1883305720      -26.6412424159       -2.4697163352  W2        1816            0.0000000000
      5447      1816  TIP3      H1            -14.4995805720      -25.8589224159       -2.0143963352  W2        1816            0.0000000000
      5448      1816  TIP3      H2            -14.8383105720      -26.7943324159       -3.1555163352  W2        1816            0.0000000000
      5449      1817  TIP3      OH2            -8.2093705720      -31.2774024159      -15.0177863352  W2        1817            0.0000000000
      5450      1817  TIP3      H1             -7.6298205720      -31.1273724159      -14.2708963352  W2        1817            0.0000000000
      5451      1817  TIP3      H2             -7.7953705720      -30.8066624159      -15.7411463352  W2        1817            0.0000000000
      5452      1818  TIP3      OH2           -17.2683405720      -30.4431324159       -3.2411463352  W2        1818            0.0000000000
      5453      1818  TIP3      H1            -17.1980205720      -29.7924524159       -2.5426463352  W2        1818            0.0000000000
      5454      1818  TIP3      H2            -18.1591205720      -30.3403824159       -3.5760563352  W2        1818            0.0000000000
      5455      1819  TIP3      OH2           -10.4828805720      -24.5405524159      -11.5824763352  W2        1819            0.0000000000
      5456      1819  TIP3      H1            -10.0091205720      -24.2449224159      -10.8050563352  W2        1819            0.0000000000
      5457      1819  TIP3      H2            -11.0459505720      -23.8023924159      -11.8155163352  W2        1819            0.0000000000
      5458      1820  TIP3      OH2           -15.9487405720      -24.5697424159       -1.7063363352  W2        1820            0.0000000000
      5459      1820  TIP3      H1            -15.9412105720      -24.7057724159       -2.6537863352  W2        1820            0.0000000000
      5460      1820  TIP3      H2            -16.8647005720      -24.6869324159       -1.4543363352  W2        1820            0.0000000000
      5461      1821  TIP3      OH2            -4.5105305720      -39.5273624159      -15.2048163352  W2        1821            0.0000000000
      5462      1821  TIP3      H1             -5.4104605720      -39.3884624159      -14.9097563352  W2        1821            0.0000000000
      5463      1821  TIP3      H2             -4.2586905720      -38.6959024159      -15.6066463352  W2        1821            0.0000000000
      5464      1822  TIP3      OH2           -16.4446805720      -30.7396424159      -13.2311263352  W2        1822            0.0000000000
      5465      1822  TIP3      H1            -16.7365505720      -29.9714724159      -13.7219963352  W2        1822            0.0000000000
      5466      1822  TIP3      H2            -17.1191605720      -31.3990224159      -13.3939863352  W2        1822            0.0000000000
      5467      1823  TIP3      OH2            -3.3213905720      -25.1611224159      -16.8284263352  W2        1823            0.0000000000
      5468      1823  TIP3      H1             -3.2480405720      -24.2221024159      -16.6578963352  W2        1823            0.0000000000
      5469      1823  TIP3      H2             -2.4158805720      -25.4662624159      -16.8846963352  W2        1823            0.0000000000
      5470      1824  TIP3      OH2           -20.3516705720      -28.3767224159       -4.4161463352  W2        1824            0.0000000000
      5471      1824  TIP3      H1            -20.8528305720      -28.4047824159       -5.2311763352  W2        1824            0.0000000000
      5472      1824  TIP3      H2            -20.3463005720      -29.2824024159       -4.1064163352  W2        1824            0.0000000000
      5473      1825  TIP3      OH2           -20.6014005720      -25.5963424159       -7.5321263352  W2        1825            0.0000000000
      5474      1825  TIP3      H1            -19.6553405720      -25.7406424159       -7.5511763352  W2        1825            0.0000000000
      5475      1825  TIP3      H2            -20.7137705720      -24.8120624159       -6.9950063352  W2        1825            0.0000000000
      5476      1826  TIP3      OH2            -2.4035505720      -24.9303724159       -1.8497563352  W2        1826            0.0000000000
      5477      1826  TIP3      H1             -2.4528705720      -25.8855624159       -1.8869963352  W2        1826            0.0000000000
      5478      1826  TIP3      H2             -3.2303205720      -24.6628424159       -1.4483763352  W2        1826            0.0000000000
      5479      1827  TIP3      OH2           -11.4251505720      -25.3564524159       -2.9736163352  W2        1827            0.0000000000
      5480      1827  TIP3      H1            -11.3376905720      -24.5299924159       -2.4987063352  W2        1827            0.0000000000
      5481      1827  TIP3      H2            -12.2886405720      -25.6860724159       -2.7246863352  W2        1827            0.0000000000
      5482      1828  TIP3      OH2           -11.0105705720      -21.5840824159      -13.1675563352  W2        1828            0.0000000000
      5483      1828  TIP3      H1            -11.0859705720      -21.7053624159      -14.1140363352  W2        1828            0.0000000000
      5484      1828  TIP3      H2            -10.9777005720      -20.6348124159      -13.0490963352  W2        1828            0.0000000000
      5485      1829  TIP3      OH2           -17.3571905720      -22.7953824159      -11.3866563352  W2        1829            0.0000000000
      5486      1829  TIP3      H1            -17.2051505720      -23.1433424159      -10.5080063352  W2        1829            0.0000000000
      5487      1829  TIP3      H2            -18.2081505720      -23.1516524159      -11.6419363352  W2        1829            0.0000000000
      5488      1830  TIP3      OH2            -7.9089705720      -22.4300624159      -16.1653163352  W2        1830            0.0000000000
      5489      1830  TIP3      H1             -7.5341305720      -23.1744524159      -16.6360563352  W2        1830            0.0000000000
      5490      1830  TIP3      H2             -7.9046005720      -22.7000024159      -15.2469863352  W2        1830            0.0000000000
      5491      1831  TIP3      OH2            -8.2401605720      -22.5043524159      -13.4160963352  W2        1831            0.0000000000
      5492      1831  TIP3      H1             -9.1751805720      -22.4041624159      -13.2373963352  W2        1831            0.0000000000
      5493      1831  TIP3      H2             -7.9599705720      -23.2137524159      -12.8377763352  W2        1831            0.0000000000
      5494      1832  TIP3      OH2            -5.2515705720      -33.4371224159       -1.3695363352  W2        1832            0.0000000000
      5495      1832  TIP3      H1             -5.6588905720      -32.9565624159       -2.0902063352  W2        1832            0.0000000000
      5496      1832  TIP3      H2             -5.2110005720      -34.3425224159       -1.6774563352  W2        1832            0.0000000000
      5497      1833  TIP3      OH2           -18.1026205720      -27.0531824159       -3.3728663352  W2        1833            0.0000000000
      5498      1833  TIP3      H1            -17.8864905720      -27.4146224159       -2.5132863352  W2        1833            0.0000000000
      5499      1833  TIP3      H2            -18.9581505720      -27.4278024159       -3.5825163352  W2        1833            0.0000000000
      5500      1834  TIP3      OH2           -15.4838205720      -38.5831324159       -7.3774463352  W2        1834            0.0000000000
      5501      1834  TIP3      H1            -16.3454505720      -38.6703124159       -7.7851563352  W2        1834            0.0000000000
      5502      1834  TIP3      H2            -15.5062505720      -37.7271224159       -6.9496863352  W2        1834            0.0000000000
      5503      1835  TIP3      OH2           -10.8210405720      -38.8610924159       -4.0027463352  W2        1835            0.0000000000
      5504      1835  TIP3      H1            -10.4007305720      -39.2763824159       -3.2496863352  W2        1835            0.0000000000
      5505      1835  TIP3      H2            -11.7540805720      -39.0397624159       -3.8855463352  W2        1835            0.0000000000
      5506      1836  TIP3      OH2            -7.4945505720      -35.1055724159       -3.1492963352  W2        1836            0.0000000000
      5507      1836  TIP3      H1             -8.0086005720      -35.2313524159       -2.3516963352  W2        1836            0.0000000000
      5508      1836  TIP3      H2             -7.6500805720      -34.1932624159       -3.3936763352  W2        1836            0.0000000000
      5509      1837  TIP3      OH2            -6.7320605720      -30.2445724159      -17.3879963352  W2        1837            0.0000000000
      5510      1837  TIP3      H1             -6.6899805720      -30.4671824159      -18.3179963352  W2        1837            0.0000000000
      5511      1837  TIP3      H2             -5.8828505720      -29.8458624159      -17.1980063352  W2        1837            0.0000000000
      5512      1838  TIP3      OH2           -11.1593105720      -36.3687524159      -16.7176663352  W2        1838            0.0000000000
      5513      1838  TIP3      H1            -11.4128305720      -36.3495924159      -15.7948563352  W2        1838            0.0000000000
      5514      1838  TIP3      H2            -11.4161005720      -37.2402124159      -17.0190463352  W2        1838            0.0000000000
      5515      1839  TIP3      OH2           -15.3928105720      -33.6176824159       -6.2824263352  W2        1839            0.0000000000
      5516      1839  TIP3      H1            -16.0346005720      -33.6579524159       -5.5734163352  W2        1839            0.0000000000
      5517      1839  TIP3      H2            -15.3556105720      -32.6912124159       -6.5201263352  W2        1839            0.0000000000
      5518      1840  TIP3      OH2           -15.3959005720      -33.3966724159      -11.3704263352  W2        1840            0.0000000000
      5519      1840  TIP3      H1            -16.2886105720      -33.7370624159      -11.4290463352  W2        1840            0.0000000000
      5520      1840  TIP3      H2            -14.9452405720      -33.7735824159      -12.1261063352  W2        1840            0.0000000000
      5521      1841  TIP3      OH2            -9.8603505720      -32.9806424159      -12.5533463352  W2        1841            0.0000000000
      5522      1841  TIP3      H1            -10.2693205720      -32.1657824159      -12.8448663352  W2        1841            0.0000000000
      5523      1841  TIP3      H2             -9.1397305720      -33.1206324159      -13.1676363352  W2        1841            0.0000000000
      5524      1842  TIP3      OH2           -10.7581905720      -32.8050024159       -1.0652763352  W2        1842            0.0000000000
      5525      1842  TIP3      H1            -11.3208105720      -33.5098424159       -0.7444963352  W2        1842            0.0000000000
      5526      1842  TIP3      H2             -9.9318505720      -32.9258124159       -0.5975163352  W2        1842            0.0000000000
      5527      1843  TIP3      OH2            -8.8555805720      -33.5346024159       -9.7393763352  W2        1843            0.0000000000
      5528      1843  TIP3      H1             -9.0511305720      -32.9289224159      -10.4543163352  W2        1843            0.0000000000
      5529      1843  TIP3      H2             -8.6743205720      -34.3680824159      -10.1737463352  W2        1843            0.0000000000
      5530      1844  TIP3      OH2           -17.6427605720      -33.2973324159       -4.4152263352  W2        1844            0.0000000000
      5531      1844  TIP3      H1            -17.6808205720      -32.8971724159       -3.5465163352  W2        1844            0.0000000000
      5532      1844  TIP3      H2            -18.1336505720      -34.1140924159       -4.3249363352  W2        1844            0.0000000000
      5533      1845  TIP3      OH2           -14.2770205720      -35.9231024159      -17.6166263352  W2        1845            0.0000000000
      5534      1845  TIP3      H1            -14.7079505720      -36.3680924159      -16.8868863352  W2        1845            0.0000000000
      5535      1845  TIP3      H2            -14.9951505720      -35.5514724159      -18.1288763352  W2        1845            0.0000000000
      5536      1846  TIP3      OH2           -21.0346805720      -36.1811524159      -10.5647563352  W2        1846            0.0000000000
      5537      1846  TIP3      H1            -20.4039105720      -36.2099424159       -9.8453663352  W2        1846            0.0000000000
      5538      1846  TIP3      H2            -20.5852505720      -36.6062824159      -11.2951663352  W2        1846            0.0000000000
      5539      1847  TIP3      OH2           -19.7604705720      -35.4349524159      -15.1407163352  W2        1847            0.0000000000
      5540      1847  TIP3      H1            -19.2863005720      -34.8439624159      -15.7256263352  W2        1847            0.0000000000
      5541      1847  TIP3      H2            -20.4778305720      -34.9046624159      -14.7937063352  W2        1847            0.0000000000
      5542      1848  TIP3      OH2            -9.5916605720      -31.8964724159       -5.0681363352  W2        1848            0.0000000000
      5543      1848  TIP3      H1             -9.2681805720      -32.5275024159       -5.7110863352  W2        1848            0.0000000000
      5544      1848  TIP3      H2            -10.0317305720      -32.4312524159       -4.4073963352  W2        1848            0.0000000000
      5545      1849  TIP3      OH2           -12.8143705720      -35.9689224159      -10.2840163352  W2        1849            0.0000000000
      5546      1849  TIP3      H1            -13.7252605720      -35.9122424159       -9.9954163352  W2        1849            0.0000000000
      5547      1849  TIP3      H2            -12.3090805720      -36.0293724159       -9.4732963352  W2        1849            0.0000000000
      5548      1850  TIP3      OH2           -17.9860305720      -34.3402924159      -11.4572563352  W2        1850            0.0000000000
      5549      1850  TIP3      H1            -18.8752305720      -34.2407424159      -11.7972963352  W2        1850            0.0000000000
      5550      1850  TIP3      H2            -17.6895405720      -35.1819924159      -11.8034663352  W2        1850            0.0000000000
      5551      1851  TIP3      OH2           -14.3328505720      -34.3400324159      -13.8007963352  W2        1851            0.0000000000
      5552      1851  TIP3      H1            -13.4013005720      -34.2110324159      -13.6224863352  W2        1851            0.0000000000
      5553      1851  TIP3      H2            -14.5478205720      -33.6706024159      -14.4503263352  W2        1851            0.0000000000
      5554      1852  TIP3      OH2            -8.4091805720      -36.7342924159       -7.0198363352  W2        1852            0.0000000000
      5555      1852  TIP3      H1             -9.0860205720      -36.6029824159       -6.3558663352  W2        1852            0.0000000000
      5556      1852  TIP3      H2             -8.8946905720      -36.8893424159       -7.8300663352  W2        1852            0.0000000000
      5557      1853  TIP3      OH2           -15.6588305720      -33.1458124159      -16.2341863352  W2        1853            0.0000000000
      5558      1853  TIP3      H1            -16.2013205720      -33.5254324159      -16.9254263352  W2        1853            0.0000000000
      5559      1853  TIP3      H2            -14.8253405720      -32.9513424159      -16.6627763352  W2        1853            0.0000000000
      5560      1854  TIP3      OH2            -5.1216705720      -21.0627524159       -0.7430763352  W2        1854            0.0000000000
      5561      1854  TIP3      H1             -4.9218005720      -20.6385624159       -1.5775463352  W2        1854            0.0000000000
      5562      1854  TIP3      H2             -4.4663005720      -20.7189324159       -0.1360363352  W2        1854            0.0000000000
      5563      1855  TIP3      OH2           -17.5236905720      -28.5886224159       -1.1350263352  W2        1855            0.0000000000
      5564      1855  TIP3      H1            -16.7914505720      -28.3340324159       -0.5735763352  W2        1855            0.0000000000
      5565      1855  TIP3      H2            -18.3038205720      -28.3840824159       -0.6194863352  W2        1855            0.0000000000
      5566      1856  TIP3      OH2           -11.4944005720      -33.1816224159       -8.3970563352  W2        1856            0.0000000000
      5567      1856  TIP3      H1            -10.9300605720      -33.7279624159       -8.9440963352  W2        1856            0.0000000000
      5568      1856  TIP3      H2            -11.6420605720      -33.7034324159       -7.6082963352  W2        1856            0.0000000000
      5569      1857  TIP3      OH2           -16.4924305720      -37.0450124159      -11.9785763352  W2        1857            0.0000000000
      5570      1857  TIP3      H1            -16.8094805720      -37.9474824159      -12.0140363352  W2        1857            0.0000000000
      5571      1857  TIP3      H2            -15.7110205720      -37.0432724159      -12.5314163352  W2        1857            0.0000000000
      5572      1858  TIP3      OH2           -12.8678105720      -34.7930124159       -5.9830163352  W2        1858            0.0000000000
      5573      1858  TIP3      H1            -13.7032805720      -34.3390624159       -5.8727763352  W2        1858            0.0000000000
      5574      1858  TIP3      H2            -12.3437505720      -34.5171624159       -5.2310263352  W2        1858            0.0000000000
      5575      1859  TIP3      OH2           -12.3235505720      -28.5802424159      -14.2983763352  W2        1859            0.0000000000
      5576      1859  TIP3      H1            -13.0684505720      -29.0877124159      -14.6205863352  W2        1859            0.0000000000
      5577      1859  TIP3      H2            -12.4578305720      -28.5314424159      -13.3518963352  W2        1859            0.0000000000
      5578      1860  TIP3      OH2            -5.1736605720      -29.4474224159       -5.5116163352  W2        1860            0.0000000000
      5579      1860  TIP3      H1             -4.5317805720      -28.9907924159       -6.0553963352  W2        1860            0.0000000000
      5580      1860  TIP3      H2             -6.0039705720      -29.3341824159       -5.9742063352  W2        1860            0.0000000000
      5581      1861  TIP3      OH2            -8.4258705720      -35.7662524159      -16.0991163352  W2        1861            0.0000000000
      5582      1861  TIP3      H1             -9.3644505720      -35.6546924159      -16.2502363352  W2        1861            0.0000000000
      5583      1861  TIP3      H2             -8.1286605720      -34.9095624159      -15.7925463352  W2        1861            0.0000000000
      5584      1862  TIP3      OH2           -10.8043405720      -28.3959124159       -3.0614663352  W2        1862            0.0000000000
      5585      1862  TIP3      H1            -11.1497305720      -28.7776724159       -2.2545063352  W2        1862            0.0000000000
      5586      1862  TIP3      H2            -11.0043305720      -27.4625524159       -2.9901763352  W2        1862            0.0000000000
      5587      1863  TIP3      OH2            -7.7075205720      -33.8989824159      -14.4383763352  W2        1863            0.0000000000
      5588      1863  TIP3      H1             -6.8156205720      -34.0364824159      -14.1192563352  W2        1863            0.0000000000
      5589      1863  TIP3      H2             -7.6511605720      -33.1083724159      -14.9750263352  W2        1863            0.0000000000
      5590      1864  TIP3      OH2           -17.1987205720      -29.2852424159       -8.5285863352  W2        1864            0.0000000000
      5591      1864  TIP3      H1            -16.4540005720      -29.2876724159       -9.1299363352  W2        1864            0.0000000000
      5592      1864  TIP3      H2            -17.1210605720      -30.1088624159       -8.0470763352  W2        1864            0.0000000000
      5593      1865  TIP3      OH2           -10.1981405720      -27.1218124159      -15.2729163352  W2        1865            0.0000000000
      5594      1865  TIP3      H1            -10.4933005720      -26.2950224159      -14.8914363352  W2        1865            0.0000000000
      5595      1865  TIP3      H2            -10.9011405720      -27.7411224159      -15.0767763352  W2        1865            0.0000000000
      5596      1866  TIP3      OH2           -20.1907505720      -30.8245524159       -3.2137363352  W2        1866            0.0000000000
      5597      1866  TIP3      H1            -19.9678905720      -31.2425924159       -2.3819863352  W2        1866            0.0000000000
      5598      1866  TIP3      H2            -20.7927405720      -31.4370524159       -3.6364563352  W2        1866            0.0000000000
      5599      1867  TIP3      OH2           -13.1742605720      -31.3075624159       -1.0007663352  W2        1867            0.0000000000
      5600      1867  TIP3      H1            -13.4701805720      -31.4732624159       -1.8958563352  W2        1867            0.0000000000
      5601      1867  TIP3      H2            -12.2427405720      -31.5275324159       -1.0113763352  W2        1867            0.0000000000
      5602      1868  TIP3      OH2            -8.5539805720      -25.9343624159       -3.1109663352  W2        1868            0.0000000000
      5603      1868  TIP3      H1             -9.4545505720      -25.7511024159       -3.3785763352  W2        1868            0.0000000000
      5604      1868  TIP3      H2             -8.5198705720      -25.6754324159       -2.1900863352  W2        1868            0.0000000000
      5605      1869  TIP3      OH2            -2.8226505720      -33.6895724159      -14.7437063352  W2        1869            0.0000000000
      5606      1869  TIP3      H1             -3.3770205720      -34.0857724159      -15.4159563352  W2        1869            0.0000000000
      5607      1869  TIP3      H2             -2.7222905720      -32.7790524159      -15.0213763352  W2        1869            0.0000000000
      5608      1870  TIP3      OH2            -2.8594505720      -27.8894024159       -1.9065563352  W2        1870            0.0000000000
      5609      1870  TIP3      H1             -3.7106005720      -27.6510224159       -2.2739163352  W2        1870            0.0000000000
      5610      1870  TIP3      H2             -2.2691105720      -27.9060824159       -2.6598463352  W2        1870            0.0000000000
      5611      1871  TIP3      OH2            -4.5274805720      -24.9035324159      -14.2784963352  W2        1871            0.0000000000
      5612      1871  TIP3      H1             -4.9003705720      -25.7291524159      -13.9694363352  W2        1871            0.0000000000
      5613      1871  TIP3      H2             -4.2501305720      -25.0865924159      -15.1761563352  W2        1871            0.0000000000
      5614      1872  TIP3      OH2            -7.3670905720      -30.0955824159       -7.2573063352  W2        1872            0.0000000000
      5615      1872  TIP3      H1             -8.2954005720      -30.3273924159       -7.2843763352  W2        1872            0.0000000000
      5616      1872  TIP3      H2             -6.9159805720      -30.8726024159       -7.5874263352  W2        1872            0.0000000000
      5617      1873  TIP3      OH2           -14.8237805720      -25.7674224159      -11.1244363352  W2        1873            0.0000000000
      5618      1873  TIP3      H1            -14.2965605720      -24.9939824159      -11.3245563352  W2        1873            0.0000000000
      5619      1873  TIP3      H2            -15.7039305720      -25.5425024159      -11.4260363352  W2        1873            0.0000000000
      5620      1874  TIP3      OH2           -19.0690105720      -30.9050124159      -16.5371963352  W2        1874            0.0000000000
      5621      1874  TIP3      H1            -18.4530205720      -30.2782924159      -16.1577163352  W2        1874            0.0000000000
      5622      1874  TIP3      H2            -19.9307505720      -30.5890324159      -16.2655463352  W2        1874            0.0000000000
      5623      1875  TIP3      OH2           -13.3965505720      -28.1044324159      -11.5480063352  W2        1875            0.0000000000
      5624      1875  TIP3      H1            -13.6375505720      -27.1789924159      -11.5064763352  W2        1875            0.0000000000
      5625      1875  TIP3      H2            -14.1371905720      -28.5633024159      -11.1516163352  W2        1875            0.0000000000
      5626      1876  TIP3      OH2           -12.8818905720      -23.9550724159       -5.2328963352  W2        1876            0.0000000000
      5627      1876  TIP3      H1            -12.5194205720      -23.1005124159       -5.4664563352  W2        1876            0.0000000000
      5628      1876  TIP3      H2            -12.3503705720      -24.2469124159       -4.4922663352  W2        1876            0.0000000000
      5629      1877  TIP3      OH2           -14.7134705720      -23.0826724159      -12.0027863352  W2        1877            0.0000000000
      5630      1877  TIP3      H1            -15.6634205720      -22.9769324159      -11.9514563352  W2        1877            0.0000000000
      5631      1877  TIP3      H2            -14.3616605720      -22.2619324159      -11.6580363352  W2        1877            0.0000000000
      5632      1878  TIP3      OH2            -9.3378105720      -27.8560024159       -5.5323363352  W2        1878            0.0000000000
      5633      1878  TIP3      H1             -9.7636805720      -28.0838324159       -4.7059363352  W2        1878            0.0000000000
      5634      1878  TIP3      H2             -8.7572305720      -28.5948224159       -5.7148063352  W2        1878            0.0000000000
      5635      1879  TIP3      OH2            -7.1349205720      -26.9269524159      -16.4584363352  W2        1879            0.0000000000
      5636      1879  TIP3      H1             -6.7816105720      -27.3069724159      -15.6540863352  W2        1879            0.0000000000
      5637      1879  TIP3      H2             -8.0835705720      -27.0204724159      -16.3715063352  W2        1879            0.0000000000
      5638      1880  TIP3      OH2            -6.6793905720      -23.3040524159       -3.0628563352  W2        1880            0.0000000000
      5639      1880  TIP3      H1             -7.2810705720      -23.8597624159       -3.5582263352  W2        1880            0.0000000000
      5640      1880  TIP3      H2             -6.3980205720      -22.6370724159       -3.6891163352  W2        1880            0.0000000000
      5641      1881  TIP3      OH2            -2.6314805720      -22.4477024159      -16.2574163352  W2        1881            0.0000000000
      5642      1881  TIP3      H1             -1.8876905720      -21.8616524159      -16.3972563352  W2        1881            0.0000000000
      5643      1881  TIP3      H2             -3.3256705720      -21.8791224159      -15.9241763352  W2        1881            0.0000000000
      5644      1882  TIP3      OH2           -18.5568005720      -36.0712824159       -3.6555963352  W2        1882            0.0000000000
      5645      1882  TIP3      H1            -19.4495705720      -35.7327424159       -3.7231963352  W2        1882            0.0000000000
      5646      1882  TIP3      H2            -18.6555205720      -36.9266724159       -3.2375163352  W2        1882            0.0000000000
      5647      1883  TIP3      OH2            -6.2689905720      -28.2547524159      -14.2316463352  W2        1883            0.0000000000
      5648      1883  TIP3      H1             -6.5462305720      -28.9828224159      -13.6755363352  W2        1883            0.0000000000
      5649      1883  TIP3      H2             -5.3416905720      -28.1355524159      -14.0263863352  W2        1883            0.0000000000
      5650      1884  TIP3      OH2           -18.9056005720      -24.2668424159       -5.2206563352  W2        1884            0.0000000000
      5651      1884  TIP3      H1            -18.6885705720      -25.1986024159       -5.2516863352  W2        1884            0.0000000000
      5652      1884  TIP3      H2            -18.6592505720      -23.9923424159       -4.3373763352  W2        1884            0.0000000000
      5653      1885  TIP3      OH2           -13.0441405720      -25.8153424159      -18.0114363352  W2        1885            0.0000000000
      5654      1885  TIP3      H1            -12.8051605720      -26.5635324159      -18.5585463352  W2        1885            0.0000000000
      5655      1885  TIP3      H2            -13.3130105720      -26.2031724159      -17.1786563352  W2        1885            0.0000000000
      5656      1886  TIP3      OH2           -14.1070805720      -26.2449624159      -15.5551763352  W2        1886            0.0000000000
      5657      1886  TIP3      H1            -13.9602805720      -26.7649824159      -14.7650863352  W2        1886            0.0000000000
      5658      1886  TIP3      H2            -14.1099105720      -25.3382024159      -15.2485863352  W2        1886            0.0000000000
      5659      1887  TIP3      OH2           -17.6539705720      -28.9926324159      -15.0446363352  W2        1887            0.0000000000
      5660      1887  TIP3      H1            -18.3400405720      -28.6403824159      -14.4776663352  W2        1887            0.0000000000
      5661      1887  TIP3      H2            -17.1311805720      -28.2296724159      -15.2912063352  W2        1887            0.0000000000
      5662      1888  TIP3      OH2            -9.8224605720      -36.3302524159       -4.7657363352  W2        1888            0.0000000000
      5663      1888  TIP3      H1             -9.1236705720      -36.2563824159       -4.1157663352  W2        1888            0.0000000000
      5664      1888  TIP3      H2            -10.2033205720      -37.1947524159       -4.6114463352  W2        1888            0.0000000000
      5665      1889  TIP3      OH2            -9.0379705720      -36.6780824159      -13.6685063352  W2        1889            0.0000000000
      5666      1889  TIP3      H1             -8.8181405720      -36.2065424159      -14.4719663352  W2        1889            0.0000000000
      5667      1889  TIP3      H2             -8.4795705720      -36.2838224159      -12.9984463352  W2        1889            0.0000000000
      5668      1890  TIP3      OH2           -11.3693605720      -24.5476024159      -14.8057563352  W2        1890            0.0000000000
      5669      1890  TIP3      H1            -12.1857505720      -24.0506324159      -14.7533263352  W2        1890            0.0000000000
      5670      1890  TIP3      H2            -10.8397305720      -24.0722524159      -15.4458763352  W2        1890            0.0000000000
      5671      1891  TIP3      OH2           -11.8379805720      -34.9502024159      -12.8336663352  W2        1891            0.0000000000
      5672      1891  TIP3      H1            -11.0257205720      -34.4458824159      -12.7874963352  W2        1891            0.0000000000
      5673      1891  TIP3      H2            -12.0826805720      -35.0952324159      -11.9197063352  W2        1891            0.0000000000
      5674      1892  TIP3      OH2           -11.3023405720      -33.9639324159       -3.6490063352  W2        1892            0.0000000000
      5675      1892  TIP3      H1            -11.1833105720      -33.3903924159       -2.8919663352  W2        1892            0.0000000000
      5676      1892  TIP3      H2            -10.6468805720      -34.6519924159       -3.5342263352  W2        1892            0.0000000000
      5677      1893  TIP3      OH2           -10.9543105720      -37.8689024159      -11.8955563352  W2        1893            0.0000000000
      5678      1893  TIP3      H1            -11.3009605720      -37.2518424159      -11.2511263352  W2        1893            0.0000000000
      5679      1893  TIP3      H2            -10.2956205720      -37.3683324159      -12.3770063352  W2        1893            0.0000000000
      5680      1894  TIP3      OH2           -14.0310505720      -23.5038824159      -14.8240663352  W2        1894            0.0000000000
      5681      1894  TIP3      H1            -13.8701805720      -22.7041324159      -15.3248063352  W2        1894            0.0000000000
      5682      1894  TIP3      H2            -14.2282705720      -23.1972824159      -13.9390063352  W2        1894            0.0000000000
      5683      1895  TIP3      OH2           -15.2966105720      -36.8059624159      -15.2083063352  W2        1895            0.0000000000
      5684      1895  TIP3      H1            -15.3801305720      -35.9176524159      -14.8616663352  W2        1895            0.0000000000
      5685      1895  TIP3      H2            -14.4065805720      -37.0712924159      -14.9766263352  W2        1895            0.0000000000
      5686      1896  TIP3      OH2            -5.0977605720      -36.0569024159       -2.8140363352  W2        1896            0.0000000000
      5687      1896  TIP3      H1             -6.0141805720      -35.7947324159       -2.9016663352  W2        1896            0.0000000000
      5688      1896  TIP3      H2             -4.7622605720      -36.0600024159       -3.7105063352  W2        1896            0.0000000000
      5689      1897  TIP3      OH2            -6.4956605720      -32.3068024159       -8.7183063352  W2        1897            0.0000000000
      5690      1897  TIP3      H1             -7.2932205720      -32.7217824159       -9.0468063352  W2        1897            0.0000000000
      5691      1897  TIP3      H2             -6.0505505720      -32.9974324159       -8.2272563352  W2        1897            0.0000000000
      5692      1898  TIP3      OH2           -17.0380805720      -26.3787424159      -16.1478563352  W2        1898            0.0000000000
      5693      1898  TIP3      H1            -16.4459305720      -25.6792624159      -15.8716163352  W2        1898            0.0000000000
      5694      1898  TIP3      H2            -16.5787805720      -26.8117924159      -16.8673963352  W2        1898            0.0000000000
      5695      1899  TIP3      OH2           -18.7221605720      -33.7144424159      -17.0319163352  W2        1899            0.0000000000
      5696      1899  TIP3      H1            -18.7669005720      -32.7751324159      -16.8532163352  W2        1899            0.0000000000
      5697      1899  TIP3      H2            -19.6098405720      -33.9499524159      -17.3017063352  W2        1899            0.0000000000
      5698      1900  TIP3      OH2            -5.4092005720      -23.0505524159       -7.0959563352  W2        1900            0.0000000000
      5699      1900  TIP3      H1             -5.5647705720      -22.3721124159       -7.7530263352  W2        1900            0.0000000000
      5700      1900  TIP3      H2             -4.4765605720      -22.9786224159       -6.8928963352  W2        1900            0.0000000000
      5701      1901  TIP3      OH2           -17.9139605720      -38.9327824159       -8.3588163352  W2        1901            0.0000000000
      5702      1901  TIP3      H1            -18.1429805720      -38.8735324159       -9.2863163352  W2        1901            0.0000000000
      5703      1901  TIP3      H2            -18.3566205720      -39.7242324159       -8.0524063352  W2        1901            0.0000000000
      5704      1902  TIP3      OH2           -18.9836305720      -24.9920724159      -12.1982363352  W2        1902            0.0000000000
      5705      1902  TIP3      H1            -19.8157705720      -24.5198024159      -12.1710963352  W2        1902            0.0000000000
      5706      1902  TIP3      H2            -18.4378005720      -24.4823124159      -12.7969263352  W2        1902            0.0000000000
      5707      1903  TIP3      OH2           -19.6952605720      -22.3797024159       -0.8684363352  W2        1903            0.0000000000
      5708      1903  TIP3      H1            -19.1550405720      -22.5963024159       -0.1085163352  W2        1903            0.0000000000
      5709      1903  TIP3      H2            -20.1764605720      -23.1851024159       -1.0581863352  W2        1903            0.0000000000
      5710      1904  TIP3      OH2           -15.0979205720      -23.4602624159        0.7519836648  W2        1904            0.0000000000
      5711      1904  TIP3      H1            -14.3302005720      -23.9191824159        1.0929036648  W2        1904            0.0000000000
      5712      1904  TIP3      H2            -15.1193005720      -23.6862824159       -0.1778963352  W2        1904            0.0000000000
      5713      1905  TIP3      OH2           -11.0059605720      -23.9522024159      -17.8728363352  W2        1905            0.0000000000
      5714      1905  TIP3      H1            -11.6498605720      -24.5833424159      -17.5514663352  W2        1905            0.0000000000
      5715      1905  TIP3      H2            -10.2441305720      -24.4834024159      -18.1044863352  W2        1905            0.0000000000
      5716      1906  TIP3      OH2            -8.5210505720      -25.0801524159       -0.5188663352  W2        1906            0.0000000000
      5717      1906  TIP3      H1             -8.8721005720      -25.9368524159       -0.2758263352  W2        1906            0.0000000000
      5718      1906  TIP3      H2             -7.7947305720      -24.9374824159        0.0880336648  W2        1906            0.0000000000
      5719      1907  TIP3      OH2            -6.4016705720      -24.1352124159      -17.6390363352  W2        1907            0.0000000000
      5720      1907  TIP3      H1             -6.1186305720      -24.9296924159      -17.1863463352  W2        1907            0.0000000000
      5721      1907  TIP3      H2             -5.6618805720      -23.9021124159      -18.1999263352  W2        1907            0.0000000000
      5722      1908  TIP3      OH2           -19.7883105720      -28.5692924159        0.0859936648  W2        1908            0.0000000000
      5723      1908  TIP3      H1            -19.6442605720      -29.4712224159       -0.2003363352  W2        1908            0.0000000000
      5724      1908  TIP3      H2            -20.5605705720      -28.2830824159       -0.4017763352  W2        1908            0.0000000000
      5725      1909  TIP3      OH2           -15.4469405720      -28.2257224159      -17.7815463352  W2        1909            0.0000000000
      5726      1909  TIP3      H1            -15.3825305720      -29.0197624159      -17.2509063352  W2        1909            0.0000000000
      5727      1909  TIP3      H2            -14.7940205720      -28.3444424159      -18.4713463352  W2        1909            0.0000000000
      5728      1910  TIP3      OH2           -13.1327005720      -28.5994824159       -0.4813663352  W2        1910            0.0000000000
      5729      1910  TIP3      H1            -13.4613205720      -28.3286724159       -1.3386263352  W2        1910            0.0000000000
      5730      1910  TIP3      H2            -12.9808805720      -29.5405024159       -0.5688663352  W2        1910            0.0000000000
      5731      1911  TIP3      OH2           -10.0946005720      -27.1785524159      -18.0457463352  W2        1911            0.0000000000
      5732      1911  TIP3      H1            -10.3631905720      -26.9983424159      -17.1448563352  W2        1911            0.0000000000
      5733      1911  TIP3      H2            -10.3010405720      -28.1039324159      -18.1771663352  W2        1911            0.0000000000
      5734      1912  TIP3      OH2            -7.3981805720      -28.6837524159       -3.0981363352  W2        1912            0.0000000000
      5735      1912  TIP3      H1             -6.6527005720      -28.0953824159       -3.2177363352  W2        1912            0.0000000000
      5736      1912  TIP3      H2             -8.1555005720      -28.1017824159       -3.0348263352  W2        1912            0.0000000000
      5737      1913  TIP3      OH2           -18.9556605720      -31.3689624159       -0.4940763352  W2        1913            0.0000000000
      5738      1913  TIP3      H1            -18.5475405720      -32.2263024159       -0.6150163352  W2        1913            0.0000000000
      5739      1913  TIP3      H2            -19.2159005720      -31.3548324159        0.4269536648  W2        1913            0.0000000000
      5740      1914  TIP3      OH2           -14.2975605720      -30.2531024159      -15.4757463352  W2        1914            0.0000000000
      5741      1914  TIP3      H1            -14.7573605720      -30.7372724159      -14.7898963352  W2        1914            0.0000000000
      5742      1914  TIP3      H2            -14.0426905720      -30.9215624159      -16.1116963352  W2        1914            0.0000000000
      5743      1915  TIP3      OH2           -15.0086305720      -32.3603924159       -3.1197863352  W2        1915            0.0000000000
      5744      1915  TIP3      H1            -15.6270205720      -31.6857324159       -2.8393163352  W2        1915            0.0000000000
      5745      1915  TIP3      H2            -14.6645105720      -32.0390024159       -3.9531663352  W2        1915            0.0000000000
      5746      1916  TIP3      OH2           -13.2265205720      -32.0099224159      -17.2134263352  W2        1916            0.0000000000
      5747      1916  TIP3      H1            -13.4070205720      -32.1648024159      -18.1405963352  W2        1916            0.0000000000
      5748      1916  TIP3      H2            -12.2764705720      -31.9020524159      -17.1686363352  W2        1916            0.0000000000
      5749      1917  TIP3      OH2            -9.9888105720      -29.8888624159        0.1576936648  W2        1917            0.0000000000
      5750      1917  TIP3      H1             -9.0356905720      -29.8049524159        0.1302936648  W2        1917            0.0000000000
      5751      1917  TIP3      H2            -10.1493505720      -30.6006824159        0.7771836648  W2        1917            0.0000000000
      5752      1918  TIP3      OH2            -3.8366905720      -29.6555024159      -17.7676163352  W2        1918            0.0000000000
      5753      1918  TIP3      H1             -4.1102105720      -30.0799524159      -18.5807863352  W2        1918            0.0000000000
      5754      1918  TIP3      H2             -3.7972805720      -28.7240524159      -17.9845763352  W2        1918            0.0000000000
      5755      1919  TIP3      OH2           -14.6692605720      -35.0053124159       -2.0374763352  W2        1919            0.0000000000
      5756      1919  TIP3      H1            -14.5191705720      -35.7341824159       -2.6395063352  W2        1919            0.0000000000
      5757      1919  TIP3      H2            -14.6670205720      -34.2281424159       -2.5962563352  W2        1919            0.0000000000
      5758      1920  TIP3      OH2           -14.2566905720      -36.6357324159       -4.5447363352  W2        1920            0.0000000000
      5759      1920  TIP3      H1            -13.7209405720      -36.1840624159       -5.1968063352  W2        1920            0.0000000000
      5760      1920  TIP3      H2            -15.1087305720      -36.7437524159       -4.9673263352  W2        1920            0.0000000000
      5761      1921  TIP3      OH2           -12.6748505720      -31.1961124159       -4.3052163352  W2        1921            0.0000000000
      5762      1921  TIP3      H1            -11.9243705720      -31.3523624159       -4.8784363352  W2        1921            0.0000000000
      5763      1921  TIP3      H2            -13.0140205720      -30.3444524159       -4.5806663352  W2        1921            0.0000000000
      5764      1922  TIP3      OH2            -8.2592305720      -33.3809324159        0.7233136648  W2        1922            0.0000000000
      5765      1922  TIP3      H1             -8.0671005720      -34.3119924159        0.6117636648  W2        1922            0.0000000000
      5766      1922  TIP3      H2             -7.4016005720      -32.9559824159        0.7128536648  W2        1922            0.0000000000
      5767      1923  TIP3      OH2            -6.9425105720      -30.5924124159       -1.1994163352  W2        1923            0.0000000000
      5768      1923  TIP3      H1             -7.2240105720      -29.8829524159       -1.7770363352  W2        1923            0.0000000000
      5769      1923  TIP3      H2             -6.0000805720      -30.6651124159       -1.3502963352  W2        1923            0.0000000000
      5770      1924  TIP3      OH2           -16.1906305720      -33.8069624159       -0.1259163352  W2        1924            0.0000000000
      5771      1924  TIP3      H1            -16.9577305720      -34.3394824159       -0.3361563352  W2        1924            0.0000000000
      5772      1924  TIP3      H2            -15.5117305720      -34.1169224159       -0.7252863352  W2        1924            0.0000000000
      5773      1925  TIP3      OH2           -13.4511405720      -39.1791624159       -4.1133763352  W2        1925            0.0000000000
      5774      1925  TIP3      H1            -13.5491805720      -38.2328424159       -4.2187563352  W2        1925            0.0000000000
      5775      1925  TIP3      H2            -14.1935205720      -39.5517824159       -4.5890263352  W2        1925            0.0000000000
      5776      1926  TIP3      OH2           -12.1870905720      -34.8576224159       -0.5495363352  W2        1926            0.0000000000
      5777      1926  TIP3      H1            -12.4225505720      -35.0769524159        0.3519536648  W2        1926            0.0000000000
      5778      1926  TIP3      H2            -12.9704005720      -35.0645024159       -1.0592863352  W2        1926            0.0000000000
      5779      1927  TIP3      OH2            -9.4714305720      -35.7302724159       -1.4741863352  W2        1927            0.0000000000
      5780      1927  TIP3      H1            -10.4188905720      -35.6983024159       -1.3418563352  W2        1927            0.0000000000
      5781      1927  TIP3      H2             -9.1587605720      -36.3555624159       -0.8203663352  W2        1927            0.0000000000
      5782      1928  TIP3      OH2            -7.8372805720      -37.0961624159        0.5310036648  W2        1928            0.0000000000
      5783      1928  TIP3      H1             -7.9341005720      -38.0484324159        0.5251936648  W2        1928            0.0000000000
      5784      1928  TIP3      H2             -8.1589705720      -36.8274824159        1.3915536648  W2        1928            0.0000000000
      5785      1929  TIP3      OH2           -18.0103505720      -35.8865824159       -0.4214463352  W2        1929            0.0000000000
      5786      1929  TIP3      H1            -17.7986105720      -36.5929724159       -1.0316963352  W2        1929            0.0000000000
      5787      1929  TIP3      H2            -18.1216005720      -36.3239824159        0.4226736648  W2        1929            0.0000000000
      5788      1930  TIP3      OH2           -13.2293305720      -39.8854224159       -1.4420963352  W2        1930            0.0000000000
      5789      1930  TIP3      H1            -12.5174905720      -40.5252024159       -1.4561863352  W2        1930            0.0000000000
      5790      1930  TIP3      H2            -13.3302905720      -39.6185924159       -2.3557863352  W2        1930            0.0000000000
      5791      1931  TIP3      OH2           -12.8755805720      -38.2025824159        0.6115336648  W2        1931            0.0000000000
      5792      1931  TIP3      H1            -13.0073605720      -38.6782024159       -0.2086163352  W2        1931            0.0000000000
      5793      1931  TIP3      H2            -13.4748405720      -37.4582224159        0.5562436648  W2        1931            0.0000000000
      5794      1932  TIP3      OH2           -13.3293505720      -21.3195524159      -16.2120663352  W2        1932            0.0000000000
      5795      1932  TIP3      H1            -12.3962805720      -21.1616824159      -16.0682263352  W2        1932            0.0000000000
      5796      1932  TIP3      H2            -13.5934705720      -20.6442524159      -16.8369163352  W2        1932            0.0000000000
      5797      1933  TIP3      OH2           -19.7608605720      -26.6831724159      -16.7292563352  W2        1933            0.0000000000
      5798      1933  TIP3      H1            -18.8469405720      -26.6042824159      -16.4558663352  W2        1933            0.0000000000
      5799      1933  TIP3      H2            -19.7535505720      -27.3702124159      -17.3956963352  W2        1933            0.0000000000
      5800      1934  TIP3      OH2           -21.1118005720      -21.2903224159      -11.6518663352  W2        1934            0.0000000000
      5801      1934  TIP3      H1            -21.7590905720      -21.7521524159      -12.1847463352  W2        1934            0.0000000000
      5802      1934  TIP3      H2            -20.7573405720      -21.9619924159      -11.0692463352  W2        1934            0.0000000000
      5803      1935  TIP3      OH2           -20.2418805720      -23.2096224159       -9.8472463352  W2        1935            0.0000000000
      5804      1935  TIP3      H1            -20.5762005720      -24.0898924159       -9.6752263352  W2        1935            0.0000000000
      5805      1935  TIP3      H2            -20.0196405720      -22.8641224159       -8.9826863352  W2        1935            0.0000000000
      5806      1936  TIP3      OH2            -2.6934005720      -22.3999824159       -6.8667663352  W2        1936            0.0000000000
      5807      1936  TIP3      H1             -2.7147305720      -22.2151424159       -5.9278263352  W2        1936            0.0000000000
      5808      1936  TIP3      H2             -2.0027805720      -21.8315824159       -7.2076263352  W2        1936            0.0000000000
      5809      1937  TIP3      OH2            -3.1301105720      -22.8328724159       -3.9448563352  W2        1937            0.0000000000
      5810      1937  TIP3      H1             -3.6172405720      -23.5684624159       -4.3161163352  W2        1937            0.0000000000
      5811      1937  TIP3      H2             -2.5808405720      -23.2264824159       -3.2669163352  W2        1937            0.0000000000
      5812      1938  TIP3      OH2            -4.6793805720      -27.0430624159        0.6931736648  W2        1938            0.0000000000
      5813      1938  TIP3      H1             -5.5452705720      -27.1480924159        1.0874036648  W2        1938            0.0000000000
      5814      1938  TIP3      H2             -4.3027905720      -26.2847324159        1.1396436648  W2        1938            0.0000000000
      5815      1939  TIP3      OH2            -3.3784105720      -28.7866924159      -13.7925763352  W2        1939            0.0000000000
      5816      1939  TIP3      H1             -2.5282705720      -28.3656024159      -13.6654163352  W2        1939            0.0000000000
      5817      1939  TIP3      H2             -3.3729005720      -29.5266824159      -13.1854363352  W2        1939            0.0000000000
      5818      1940  TIP3      OH2            -2.9838505720      -30.7329524159      -11.9690063352  W2        1940            0.0000000000
      5819      1940  TIP3      H1             -3.7103905720      -31.2126924159      -11.5712463352  W2        1940            0.0000000000
      5820      1940  TIP3      H2             -2.4025205720      -30.5274824159      -11.2368463352  W2        1940            0.0000000000
      5821      1941  TIP3      OH2            -3.2247305720      -27.9482024159       -7.0212463352  W2        1941            0.0000000000
      5822      1941  TIP3      H1             -2.3913105720      -28.3262024159       -7.3018863352  W2        1941            0.0000000000
      5823      1941  TIP3      H2             -3.1127005720      -27.0050824159       -7.1403363352  W2        1941            0.0000000000
      5824      1942  TIP3      OH2            -4.7385005720      -25.0704524159       -4.7144063352  W2        1942            0.0000000000
      5825      1942  TIP3      H1             -5.3859705720      -24.7453024159       -4.0888863352  W2        1942            0.0000000000
      5826      1942  TIP3      H2             -5.2561005720      -25.5106824159       -5.3885763352  W2        1942            0.0000000000
      5827      1943  TIP3      OH2            -2.7155405720      -30.8321024159      -15.5778763352  W2        1943            0.0000000000
      5828      1943  TIP3      H1             -3.2374305720      -30.4756924159      -16.2967863352  W2        1943            0.0000000000
      5829      1943  TIP3      H2             -2.7486205720      -30.1573224159      -14.8997863352  W2        1943            0.0000000000
      5830      1944  TIP3      OH2            -4.3666405720      -33.5925424159      -17.0271663352  W2        1944            0.0000000000
      5831      1944  TIP3      H1             -4.2702005720      -32.9258424159      -17.7071963352  W2        1944            0.0000000000
      5832      1944  TIP3      H2             -4.5066805720      -34.4079124159      -17.5086163352  W2        1944            0.0000000000
      5833      1945  TIP3      OH2            -5.1971705720      -32.2123024159      -11.4061363352  W2        1945            0.0000000000
      5834      1945  TIP3      H1             -5.3472905720      -33.1574424159      -11.4263563352  W2        1945            0.0000000000
      5835      1945  TIP3      H2             -5.5507205720      -31.9311624159      -10.5622263352  W2        1945            0.0000000000
      5836      1946  TIP3      OH2           -20.1619305720      -30.1340824159       -7.3957563352  W2        1946            0.0000000000
      5837      1946  TIP3      H1            -19.9776405720      -30.2159124159       -8.3314663352  W2        1946            0.0000000000
      5838      1946  TIP3      H2            -19.3126405720      -30.2583824159       -6.9721163352  W2        1946            0.0000000000
      5839      1947  TIP3      OH2            -4.3408805720      -30.2419724159       -1.7673063352  W2        1947            0.0000000000
      5840      1947  TIP3      H1             -3.7581505720      -30.9767424159       -1.5755863352  W2        1947            0.0000000000
      5841      1947  TIP3      H2             -3.7769505720      -29.4699424159       -1.7207263352  W2        1947            0.0000000000
      5842      1948  TIP3      OH2            -2.8441705720      -32.3393924159       -1.0827663352  W2        1948            0.0000000000
      5843      1948  TIP3      H1             -3.7075005720      -32.7181824159       -1.2482963352  W2        1948            0.0000000000
      5844      1948  TIP3      H2             -2.2398005720      -33.0779124159       -1.1571863352  W2        1948            0.0000000000
      5845      1949  TIP3      OH2            -5.1192605720      -36.1845624159      -17.9096163352  W2        1949            0.0000000000
      5846      1949  TIP3      H1             -4.5086805720      -36.5558824159      -17.2727963352  W2        1949            0.0000000000
      5847      1949  TIP3      H2             -5.9561105720      -36.6058724159      -17.7136163352  W2        1949            0.0000000000
      5848      1950  TIP3      OH2            -5.4866905720      -34.6297224159      -12.9436263352  W2        1950            0.0000000000
      5849      1950  TIP3      H1             -5.2069805720      -35.5366824159      -12.8194563352  W2        1950            0.0000000000
      5850      1950  TIP3      H2             -4.7275205720      -34.1955724159      -13.3327063352  W2        1950            0.0000000000
      5851      1951  TIP3      OH2            -4.8748605720      -34.0479824159       -7.5077363352  W2        1951            0.0000000000
      5852      1951  TIP3      H1             -3.9420605720      -33.8359924159       -7.5421363352  W2        1951            0.0000000000
      5853      1951  TIP3      H2             -5.1101105720      -33.9467724159       -6.5854363352  W2        1951            0.0000000000
      5854      1952  TIP3      OH2            -4.8456705720      -33.3114524159       -4.7317963352  W2        1952            0.0000000000
      5855      1952  TIP3      H1             -5.6885405720      -33.0434124159       -4.3658163352  W2        1952            0.0000000000
      5856      1952  TIP3      H2             -4.4032405720      -32.4892624159       -4.9426863352  W2        1952            0.0000000000
      5857      1953  TIP3      OH2           -20.5644505720      -34.8635824159       -1.2548763352  W2        1953            0.0000000000
      5858      1953  TIP3      H1            -19.6449605720      -34.9857524159       -1.0185663352  W2        1953            0.0000000000
      5859      1953  TIP3      H2            -21.0140005720      -35.6136124159       -0.8655263352  W2        1953            0.0000000000
      5860      1954  TIP3      OH2            -2.5625105720      -39.3314324159        0.6217036648  W2        1954            0.0000000000
      5861      1954  TIP3      H1             -2.2128105720      -39.9850824159        0.0161736648  W2        1954            0.0000000000
      5862      1954  TIP3      H2             -2.4155605720      -38.4940224159        0.1819636648  W2        1954            0.0000000000
      5863      1955  TIP3      OH2            -4.8732105720      -37.3667924159      -12.8954263352  W2        1955            0.0000000000
      5864      1955  TIP3      H1             -4.6907105720      -37.8156424159      -12.0699263352  W2        1955            0.0000000000
      5865      1955  TIP3      H2             -5.4729205720      -37.9513524159      -13.3589663352  W2        1955            0.0000000000
      5866      1956  TIP3      OH2           -19.3432005720      -36.5514224159       -8.3635863352  W2        1956            0.0000000000
      5867      1956  TIP3      H1            -18.8980405720      -37.3431724159       -8.0616163352  W2        1956            0.0000000000
      5868      1956  TIP3      H2            -18.8769005720      -35.8349024159       -7.9330263352  W2        1956            0.0000000000
      5869      1957  TIP3      OH2           -21.0391705720      -33.5521224159       -7.2945663352  W2        1957            0.0000000000
      5870      1957  TIP3      H1            -20.5471905720      -33.7730724159       -8.0853663352  W2        1957            0.0000000000
      5871      1957  TIP3      H2            -20.6770805720      -32.7117824159       -7.0136163352  W2        1957            0.0000000000
      5872      1958  TIP3      OH2            -3.0427905720      -37.2219724159       -1.0291663352  W2        1958            0.0000000000
      5873      1958  TIP3      H1             -3.9602205720      -36.9512624159       -1.0648163352  W2        1958            0.0000000000
      5874      1958  TIP3      H2             -2.9198505720      -37.7571324159       -1.8131963352  W2        1958            0.0000000000
      5875      1959  TIP3      OH2            -3.0065905720      -37.2989824159      -16.3673963352  W2        1959            0.0000000000
      5876      1959  TIP3      H1             -2.5943305720      -38.0204124159      -16.8425963352  W2        1959            0.0000000000
      5877      1959  TIP3      H2             -2.3249405720      -36.6295224159      -16.3089663352  W2        1959            0.0000000000
      5878      1960  TIP3      OH2           -20.7255205720      -37.2942124159      -13.2403263352  W2        1960            0.0000000000
      5879      1960  TIP3      H1            -21.6506805720      -37.0855524159      -13.3697763352  W2        1960            0.0000000000
      5880      1960  TIP3      H2            -20.2715305720      -36.8101324159      -13.9300963352  W2        1960            0.0000000000
      5881      1961  TIP3      OH2            -5.9548005720      -22.3100424159      -11.2945863352  W2        1961            0.0000000000
      5882      1961  TIP3      H1             -5.3025105720      -22.6578324159      -11.9026763352  W2        1961            0.0000000000
      5883      1961  TIP3      H2             -5.4444205720      -21.8217224159      -10.6486163352  W2        1961            0.0000000000
      5884      1962  TIP3      OH2           -20.7619805720      -38.5563124159       -4.8960763352  W2        1962            0.0000000000
      5885      1962  TIP3      H1            -21.4269305720      -38.8022824159       -4.2529863352  W2        1962            0.0000000000
      5886      1962  TIP3      H2            -21.2048505720      -37.9342724159       -5.4732763352  W2        1962            0.0000000000
      5887      1963  TIP3      OH2           -18.5700505720      -25.3809024159       -0.7514963352  W2        1963            0.0000000000
      5888      1963  TIP3      H1            -19.3908005720      -25.2062524159       -1.2120263352  W2        1963            0.0000000000
      5889      1963  TIP3      H2            -18.8222705720      -25.4544324159        0.1689436648  W2        1963            0.0000000000
      5890      1964  TIP3      OH2           -15.6157605720      -24.4067824159       -4.4930963352  W2        1964            0.0000000000
      5891      1964  TIP3      H1            -16.0406505720      -23.5969324159       -4.7756363352  W2        1964            0.0000000000
      5892      1964  TIP3      H2            -14.7114805720      -24.3213724159       -4.7951163352  W2        1964            0.0000000000
      5893      1965  TIP3      OH2           -11.3046205720      -23.0077824159       -1.5337263352  W2        1965            0.0000000000
      5894      1965  TIP3      H1            -11.1198705720      -23.3411724159       -0.6556963352  W2        1965            0.0000000000
      5895      1965  TIP3      H2            -10.4581705720      -22.6979224159       -1.8558063352  W2        1965            0.0000000000
      5896      1966  TIP3      OH2            -8.9595805720      -21.7218924159       -2.2895863352  W2        1966            0.0000000000
      5897      1966  TIP3      H1             -8.2826905720      -22.3546624159       -2.5296663352  W2        1966            0.0000000000
      5898      1966  TIP3      H2             -8.6377005720      -21.3208424159       -1.4822563352  W2        1966            0.0000000000
      5899      1967  TIP3      OH2            -4.0422005720      -39.1323424159       -3.2100863352  W2        1967            0.0000000000
      5900      1967  TIP3      H1             -4.8548505720      -38.8073124159       -3.5976163352  W2        1967            0.0000000000
      5901      1967  TIP3      H2             -3.8093505720      -39.8924924159       -3.7431763352  W2        1967            0.0000000000
      5902      1968  TIP3      OH2           -18.2140905720      -21.1503924159       -4.4455663352  W2        1968            0.0000000000
      5903      1968  TIP3      H1            -18.9344505720      -20.7102924159       -4.8967963352  W2        1968            0.0000000000
      5904      1968  TIP3      H2            -18.5796905720      -21.4009224159       -3.5971663352  W2        1968            0.0000000000
      5905      1969  TIP3      OH2           -15.7468305720      -21.5500024159       -5.4158463352  W2        1969            0.0000000000
      5906      1969  TIP3      H1            -16.6116105720      -21.4781524159       -5.0118363352  W2        1969            0.0000000000
      5907      1969  TIP3      H2            -15.8019305720      -21.0032724159       -6.1995963352  W2        1969            0.0000000000
      5908      1970  TIP3      OH2           -11.0362705720      -21.6621124159       -6.2402463352  W2        1970            0.0000000000
      5909      1970  TIP3      H1            -11.4928705720      -21.1331424159       -6.8944063352  W2        1970            0.0000000000
      5910      1970  TIP3      H2            -10.8734705720      -21.0589724159       -5.5150163352  W2        1970            0.0000000000
      5911      1971  TIP3      OH2            -8.7086405720      -22.7841524159       -5.2952163352  W2        1971            0.0000000000
      5912      1971  TIP3      H1             -9.6132705720      -22.6191324159       -5.5610063352  W2        1971            0.0000000000
      5913      1971  TIP3      H2             -8.2797805720      -21.9309324159       -5.3608763352  W2        1971            0.0000000000
      5914      1972  TIP3      OH2            -6.1044505720      -21.2142424159       -5.0004363352  W2        1972            0.0000000000
      5915      1972  TIP3      H1             -6.2862505720      -20.2983524159       -5.2109463352  W2        1972            0.0000000000
      5916      1972  TIP3      H2             -5.9276705720      -21.6245324159       -5.8469763352  W2        1972            0.0000000000
      5917      1973  TIP3      OH2           -18.7992805720      -22.5271424159       -7.5353863352  W2        1973            0.0000000000
      5918      1973  TIP3      H1            -18.8176805720      -22.9526324159       -6.6781563352  W2        1973            0.0000000000
      5919      1973  TIP3      H2            -17.9944905720      -22.8456424159       -7.9441663352  W2        1973            0.0000000000
      5920      1974  TIP3      OH2           -16.6579705720      -23.8172724159       -8.8803963352  W2        1974            0.0000000000
      5921      1974  TIP3      H1            -16.8769005720      -24.7335324159       -8.7107963352  W2        1974            0.0000000000
      5922      1974  TIP3      H2            -15.8337505720      -23.6772324159       -8.4142563352  W2        1974            0.0000000000
      5923      1975  TIP3      OH2           -14.1207205720      -23.3473424159       -8.0315963352  W2        1975            0.0000000000
      5924      1975  TIP3      H1            -13.9081505720      -24.2354424159       -8.3185063352  W2        1975            0.0000000000
      5925      1975  TIP3      H2            -14.0562105720      -23.3815724159       -7.0771963352  W2        1975            0.0000000000
      5926      1976  TIP3      OH2           -10.6123505720      -37.6832824159       -8.8872663352  W2        1976            0.0000000000
      5927      1976  TIP3      H1            -11.2866705720      -38.3127224159       -8.6316863352  W2        1976            0.0000000000
      5928      1976  TIP3      H2            -10.0484305720      -38.1673924159       -9.4904763352  W2        1976            0.0000000000
      5929      1977  TIP3      OH2            -5.4696305720      -39.5758824159       -8.7745563352  W2        1977            0.0000000000
      5930      1977  TIP3      H1             -4.8658705720      -39.0283424159       -9.2764563352  W2        1977            0.0000000000
      5931      1977  TIP3      H2             -6.3394305720      -39.2568424159       -9.0151463352  W2        1977            0.0000000000
      5932      1978  TIP3      OH2            -3.7425905720      -38.4370124159      -10.4414663352  W2        1978            0.0000000000
      5933      1978  TIP3      H1             -3.1308405720      -38.9514424159      -10.9681063352  W2        1978            0.0000000000
      5934      1978  TIP3      H2             -3.3602505720      -37.5598024159      -10.4180263352  W2        1978            0.0000000000
      5935      1979  TIP3      OH2           -18.2856005720      -39.0492524159      -11.0652763352  W2        1979            0.0000000000
      5936      1979  TIP3      H1            -19.0626205720      -39.2837624159      -11.5726863352  W2        1979            0.0000000000
      5937      1979  TIP3      H2            -17.7552405720      -39.8460424159      -11.0564763352  W2        1979            0.0000000000
      5938      1980  TIP3      OH2           -19.4492605720      -39.2514424159      -15.2616663352  W2        1980            0.0000000000
      5939      1980  TIP3      H1            -19.0101905720      -38.6403924159      -15.8533163352  W2        1980            0.0000000000
      5940      1980  TIP3      H2            -20.0830205720      -38.7130324159      -14.7876663352  W2        1980            0.0000000000
      5941      1981  TIP3      OH2           -13.7063405720      -39.1225424159      -11.2519663352  W2        1981            0.0000000000
      5942      1981  TIP3      H1            -12.8320005720      -38.7341124159      -11.2815363352  W2        1981            0.0000000000
      5943      1981  TIP3      H2            -13.8422605720      -39.3377624159      -10.3292463352  W2        1981            0.0000000000
      5944      1982  TIP3      OH2            -8.1495005720      -39.0925624159       -9.6027963352  W2        1982            0.0000000000
      5945      1982  TIP3      H1             -8.0733405720      -38.9974024159      -10.5521963352  W2        1982            0.0000000000
      5946      1982  TIP3      H2             -8.4245805720      -40.0002724159       -9.4738863352  W2        1982            0.0000000000
      5947      1983  TIP3      OH2            -6.7962405720      -39.0667824159      -13.9102963352  W2        1983            0.0000000000
      5948      1983  TIP3      H1             -7.4991305720      -38.4518624159      -14.1201563352  W2        1983            0.0000000000
      5949      1983  TIP3      H2             -7.2411005720      -39.9041124159      -13.7792063352  W2        1983            0.0000000000
      5950      1984  TIP3      OH2           -19.5483105720      -23.3032224159      -14.3641563352  W2        1984            0.0000000000
      5951      1984  TIP3      H1            -20.2333205720      -23.3413324159      -15.0316463352  W2        1984            0.0000000000
      5952      1984  TIP3      H2            -19.5445905720      -22.3904624159      -14.0759463352  W2        1984            0.0000000000
      5953      1985  TIP3      OH2           -17.5883505720      -37.3352924159      -16.8192563352  W2        1985            0.0000000000
      5954      1985  TIP3      H1            -17.0970105720      -37.9650524159      -17.3467063352  W2        1985            0.0000000000
      5955      1985  TIP3      H2            -16.9647205720      -37.0393524159      -16.1561363352  W2        1985            0.0000000000
      5956      1986  TIP3      OH2           -12.5623405720      -37.0421424159      -14.3622063352  W2        1986            0.0000000000
      5957      1986  TIP3      H1            -12.3842105720      -37.6888224159      -13.6793463352  W2        1986            0.0000000000
      5958      1986  TIP3      H2            -12.6157205720      -36.2083724159      -13.8950963352  W2        1986            0.0000000000
      5959      1987  TIP3      OH2           -10.6839605720      -22.0937324159      -15.9665363352  W2        1987            0.0000000000
      5960      1987  TIP3      H1             -9.8179405720      -21.7269924159      -16.1447163352  W2        1987            0.0000000000
      5961      1987  TIP3      H2            -10.9306805720      -22.5329324159      -16.7804563352  W2        1987            0.0000000000
      5962      1988  TIP3      OH2            -3.9750005720      -22.5307024159      -13.2874263352  W2        1988            0.0000000000
      5963      1988  TIP3      H1             -4.1692905720      -23.2784924159      -13.8524663352  W2        1988            0.0000000000
      5964      1988  TIP3      H2             -4.0139905720      -21.7726924159      -13.8706363352  W2        1988            0.0000000000
      5965      1989  TIP3      OH2           -18.3278005720      -38.5350624159       -1.5476563352  W2        1989            0.0000000000
      5966      1989  TIP3      H1            -18.6939805720      -39.3008024159       -1.1051863352  W2        1989            0.0000000000
      5967      1989  TIP3      H2            -17.4149505720      -38.5060424159       -1.2611463352  W2        1989            0.0000000000
      5968      1990  TIP3      OH2           -16.3547205720      -39.1846224159       -0.0119463352  W2        1990            0.0000000000
      5969      1990  TIP3      H1            -15.4563605720      -39.4586024159       -0.1966063352  W2        1990            0.0000000000
      5970      1990  TIP3      H2            -16.7414105720      -39.9270224159        0.4523136648  W2        1990            0.0000000000
      5971      1991  TIP3      OH2           -17.7301905720      -22.3831424159      -17.3389463352  W2        1991            0.0000000000
      5972      1991  TIP3      H1            -17.9977305720      -22.0968524159      -16.4656363352  W2        1991            0.0000000000
      5973      1991  TIP3      H2            -16.9589305720      -22.9292224159      -17.1866963352  W2        1991            0.0000000000
      5974      1992  TIP3      OH2            -7.9334905720      -39.8520924159        0.1703336648  W2        1992            0.0000000000
      5975      1992  TIP3      H1             -7.8567705720      -40.2780224159        1.0241036648  W2        1992            0.0000000000
      5976      1992  TIP3      H2             -7.0398305720      -39.8386224159       -0.1723163352  W2        1992            0.0000000000
      5977      1993  TIP3      OH2            -4.7573805720      -23.7794624159       -1.1372463352  W2        1993            0.0000000000
      5978      1993  TIP3      H1             -5.5391905720      -23.9656624159       -1.6571863352  W2        1993            0.0000000000
      5979      1993  TIP3      H2             -4.8293905720      -22.8500324159       -0.9199963352  W2        1993            0.0000000000
      5980      1994  TIP3      OH2             9.6486594280      -29.8930224159      -11.1065263352  W2        1994            0.0000000000
      5981      1994  TIP3      H1              9.7377694280      -28.9492024159      -11.2388163352  W2        1994            0.0000000000
      5982      1994  TIP3      H2              9.0104194280      -30.1683824159      -11.7645863352  W2        1994            0.0000000000
      5983      1995  TIP3      OH2             8.5817894280      -30.6379524159       -7.6877063352  W2        1995            0.0000000000
      5984      1995  TIP3      H1              8.5435394280      -31.2843224159       -6.9827463352  W2        1995            0.0000000000
      5985      1995  TIP3      H2              8.2594394280      -31.1045124159       -8.4588363352  W2        1995            0.0000000000
      5986      1996  TIP3      OH2             0.9502894280      -31.0237424159       -6.0947163352  W2        1996            0.0000000000
      5987      1996  TIP3      H1              0.9914994280      -31.6494124159       -5.3714763352  W2        1996            0.0000000000
      5988      1996  TIP3      H2              1.6530594280      -30.3998824159       -5.9126763352  W2        1996            0.0000000000
      5989      1997  TIP3      OH2            12.2878094280      -27.6989124159       -9.3861963352  W2        1997            0.0000000000
      5990      1997  TIP3      H1             11.8470794280      -28.4193124159       -8.9356363352  W2        1997            0.0000000000
      5991      1997  TIP3      H2             12.2747794280      -26.9781924159       -8.7564263352  W2        1997            0.0000000000
      5992      1998  TIP3      OH2             1.8735994280      -26.5738524159       -7.5598063352  W2        1998            0.0000000000
      5993      1998  TIP3      H1              1.5041194280      -27.3758024159       -7.9293763352  W2        1998            0.0000000000
      5994      1998  TIP3      H2              2.8147094280      -26.7423624159       -7.5134663352  W2        1998            0.0000000000
      5995      1999  TIP3      OH2            -1.5163505720      -32.9135924159      -12.1669263352  W2        1999            0.0000000000
      5996      1999  TIP3      H1             -1.9640105720      -32.0677224159      -12.1852763352  W2        1999            0.0000000000
      5997      1999  TIP3      H2             -2.0772305720      -33.4931724159      -12.6824163352  W2        1999            0.0000000000
      5998      2000  TIP3      OH2            -0.8057405720      -30.7516324159      -10.0411263352  W2        2000            0.0000000000
      5999      2000  TIP3      H1             -0.5923905720      -31.5214724159       -9.5138263352  W2        2000            0.0000000000
      6000      2000  TIP3      H2             -0.0679805720      -30.6619624159      -10.6443663352  W2        2000            0.0000000000
      6001      2001  TIP3      OH2             9.3993594280      -22.5947424159       -9.1741563352  W2        2001            0.0000000000
      6002      2001  TIP3      H1             10.0189994280      -23.2712724159       -9.4472363352  W2        2001            0.0000000000
      6003      2001  TIP3      H2              9.1910994280      -22.8126624159       -8.2656663352  W2        2001            0.0000000000
      6004      2002  TIP3      OH2             6.9712294280      -28.2058124159       -7.2816063352  W2        2002            0.0000000000
      6005      2002  TIP3      H1              7.2750194280      -28.8916724159       -7.8761963352  W2        2002            0.0000000000
      6006      2002  TIP3      H2              7.6926294280      -28.0869424159       -6.6638063352  W2        2002            0.0000000000
      6007      2003  TIP3      OH2            15.6342094280      -36.6042824159       -6.4209863352  W2        2003            0.0000000000
      6008      2003  TIP3      H1             15.6834294280      -35.9941624159       -5.6850763352  W2        2003            0.0000000000
      6009      2003  TIP3      H2             16.0597194280      -36.1431924159       -7.1438763352  W2        2003            0.0000000000
      6010      2004  TIP3      OH2            10.1119294280      -33.8115724159       -6.9541263352  W2        2004            0.0000000000
      6011      2004  TIP3      H1             10.2545194280      -34.7578724159       -6.9339663352  W2        2004            0.0000000000
      6012      2004  TIP3      H2             10.0058294280      -33.6045924159       -7.8826363352  W2        2004            0.0000000000
      6013      2005  TIP3      OH2             3.2667594280      -35.7099324159       -9.6816463352  W2        2005            0.0000000000
      6014      2005  TIP3      H1              3.3098694280      -34.8500824159      -10.1000163352  W2        2005            0.0000000000
      6015      2005  TIP3      H2              2.8091694280      -36.2624624159      -10.3153263352  W2        2005            0.0000000000
      6016      2006  TIP3      OH2            10.9890294280      -35.5793724159      -11.2808163352  W2        2006            0.0000000000
      6017      2006  TIP3      H1             11.6354594280      -35.9080524159      -10.6560563352  W2        2006            0.0000000000
      6018      2006  TIP3      H2             11.4989694280      -35.0614724159      -11.9036763352  W2        2006            0.0000000000
      6019      2007  TIP3      OH2            -0.1130905720      -33.3133524159       -8.9195063352  W2        2007            0.0000000000
      6020      2007  TIP3      H1              0.5405694280      -33.8631824159       -8.4874963352  W2        2007            0.0000000000
      6021      2007  TIP3      H2             -0.0891605720      -33.5874524159       -9.8363063352  W2        2007            0.0000000000
      6022      2008  TIP3      OH2             5.0433594280      -31.7632224159       -9.7043563352  W2        2008            0.0000000000
      6023      2008  TIP3      H1              5.6594594280      -32.2896824159       -9.1949563352  W2        2008            0.0000000000
      6024      2008  TIP3      H2              4.4572394280      -32.4033524159      -10.1079963352  W2        2008            0.0000000000
      6025      2009  TIP3      OH2            16.0256694280      -35.1263624159       -4.1850063352  W2        2009            0.0000000000
      6026      2009  TIP3      H1             15.3371294280      -34.4682924159       -4.2803463352  W2        2009            0.0000000000
      6027      2009  TIP3      H2             16.0411294280      -35.3235724159       -3.2484663352  W2        2009            0.0000000000
      6028      2010  TIP3      OH2             2.0769494280      -36.7920924159       -5.6075663352  W2        2010            0.0000000000
      6029      2010  TIP3      H1              1.8581194280      -36.2620324159       -6.3739663352  W2        2010            0.0000000000
      6030      2010  TIP3      H2              1.4090394280      -36.5655424159       -4.9604263352  W2        2010            0.0000000000
      6031      2011  TIP3      OH2             9.4459294280      -27.2919824159      -12.0636563352  W2        2011            0.0000000000
      6032      2011  TIP3      H1              9.1504394280      -27.6147524159      -12.9149663352  W2        2011            0.0000000000
      6033      2011  TIP3      H2              9.1217094280      -26.3923124159      -12.0223963352  W2        2011            0.0000000000
      6034      2012  TIP3      OH2             4.6460894280      -29.1165224159       -5.3201963352  W2        2012            0.0000000000
      6035      2012  TIP3      H1              3.9059994280      -28.5183724159       -5.2166763352  W2        2012            0.0000000000
      6036      2012  TIP3      H2              5.3600394280      -28.5625624159       -5.6358363352  W2        2012            0.0000000000
      6037      2013  TIP3      OH2            12.7528694280      -36.2884424159       -9.3002263352  W2        2013            0.0000000000
      6038      2013  TIP3      H1             12.5376694280      -37.0541024159       -8.7676263352  W2        2013            0.0000000000
      6039      2013  TIP3      H2             13.4086094280      -35.8159824159       -8.7873763352  W2        2013            0.0000000000
      6040      2014  TIP3      OH2             1.6706794280      -34.8999124159       -7.6553463352  W2        2014            0.0000000000
      6041      2014  TIP3      H1              2.2843094280      -34.2671524159       -7.2821063352  W2        2014            0.0000000000
      6042      2014  TIP3      H2              2.1827494280      -35.3724124159       -8.3116563352  W2        2014            0.0000000000
      6043      2015  TIP3      OH2             3.0535194280      -27.1522224159       -4.5330463352  W2        2015            0.0000000000
      6044      2015  TIP3      H1              3.0482794280      -26.2728724159       -4.9111163352  W2        2015            0.0000000000
      6045      2015  TIP3      H2              2.1999294280      -27.2358124159       -4.1080563352  W2        2015            0.0000000000
      6046      2016  TIP3      OH2            -0.8253905720      -27.4814324159      -13.7511163352  W2        2016            0.0000000000
      6047      2016  TIP3      H1             -1.0973005720      -27.2523324159      -14.6398263352  W2        2016            0.0000000000
      6048      2016  TIP3      H2             -0.7798205720      -26.6435524159      -13.2905863352  W2        2016            0.0000000000
      6049      2017  TIP3      OH2            12.7995794280      -25.8598424159       -7.0382663352  W2        2017            0.0000000000
      6050      2017  TIP3      H1             11.8579494280      -25.8014524159       -6.8765763352  W2        2017            0.0000000000
      6051      2017  TIP3      H2             13.0761894280      -24.9537924159       -7.1752963352  W2        2017            0.0000000000
      6052      2018  TIP3      OH2            13.1002794280      -37.5733124159       -5.6208763352  W2        2018            0.0000000000
      6053      2018  TIP3      H1             12.3641994280      -36.9626024159       -5.6587463352  W2        2018            0.0000000000
      6054      2018  TIP3      H2             13.7836794280      -37.1584124159       -6.1472363352  W2        2018            0.0000000000
      6055      2019  TIP3      OH2             6.1034194280      -39.4865824159       -8.1550763352  W2        2019            0.0000000000
      6056      2019  TIP3      H1              5.9858394280      -40.4349824159       -8.2092463352  W2        2019            0.0000000000
      6057      2019  TIP3      H2              5.2484294280      -39.1539724159       -7.8819663352  W2        2019            0.0000000000
      6058      2020  TIP3      OH2            11.0516994280      -24.0784924159      -10.4131063352  W2        2020            0.0000000000
      6059      2020  TIP3      H1             11.4769294280      -24.7857024159      -10.8981463352  W2        2020            0.0000000000
      6060      2020  TIP3      H2             11.3686994280      -23.2772224159      -10.8298863352  W2        2020            0.0000000000
      6061      2021  TIP3      OH2            12.2113494280      -26.1776424159      -11.9044463352  W2        2021            0.0000000000
      6062      2021  TIP3      H1             11.9538294280      -26.8676324159      -12.5158563352  W2        2021            0.0000000000
      6063      2021  TIP3      H2             12.2824294280      -26.6205224159      -11.0588563352  W2        2021            0.0000000000
      6064      2022  TIP3      OH2            13.8973694280      -27.6109724159       -3.4270963352  W2        2022            0.0000000000
      6065      2022  TIP3      H1             14.0369994280      -28.2027224159       -4.1663963352  W2        2022            0.0000000000
      6066      2022  TIP3      H2             14.0646494280      -26.7383824159       -3.7832163352  W2        2022            0.0000000000
      6067      2023  TIP3      OH2             8.3699094280      -30.6490224159      -13.6544963352  W2        2023            0.0000000000
      6068      2023  TIP3      H1              7.6584594280      -30.1140524159      -14.0064463352  W2        2023            0.0000000000
      6069      2023  TIP3      H2              9.0608694280      -30.5938124159      -14.3146063352  W2        2023            0.0000000000
      6070      2024  TIP3      OH2             8.4238294280      -32.1915924159      -16.6159963352  W2        2024            0.0000000000
      6071      2024  TIP3      H1              9.1248194280      -32.1689024159      -15.9645963352  W2        2024            0.0000000000
      6072      2024  TIP3      H2              8.7261194280      -32.8196224159      -17.2720663352  W2        2024            0.0000000000
      6073      2025  TIP3      OH2            15.7392994280      -31.2711724159       -5.3610563352  W2        2025            0.0000000000
      6074      2025  TIP3      H1             15.0867094280      -30.5766124159       -5.2719663352  W2        2025            0.0000000000
      6075      2025  TIP3      H2             16.2043294280      -31.0610824159       -6.1708963352  W2        2025            0.0000000000
      6076      2026  TIP3      OH2            11.7756794280      -30.4396924159      -12.7029063352  W2        2026            0.0000000000
      6077      2026  TIP3      H1             11.0437794280      -30.2113224159      -12.1298463352  W2        2026            0.0000000000
      6078      2026  TIP3      H2             12.2228994280      -31.1534224159      -12.2481563352  W2        2026            0.0000000000
      6079      2027  TIP3      OH2            11.6730294280      -32.2654324159       -3.6352063352  W2        2027            0.0000000000
      6080      2027  TIP3      H1             11.7529394280      -31.5019924159       -3.0633563352  W2        2027            0.0000000000
      6081      2027  TIP3      H2             11.0717994280      -31.9861924159       -4.3256963352  W2        2027            0.0000000000
      6082      2028  TIP3      OH2             3.4210494280      -29.8090724159      -10.8204063352  W2        2028            0.0000000000
      6083      2028  TIP3      H1              3.0905694280      -30.1797324159      -11.6387063352  W2        2028            0.0000000000
      6084      2028  TIP3      H2              4.0094594280      -30.4796724159      -10.4735763352  W2        2028            0.0000000000
      6085      2029  TIP3      OH2             4.7877994280      -26.3810124159       -8.1391863352  W2        2029            0.0000000000
      6086      2029  TIP3      H1              4.6929294280      -26.9597024159       -8.8957263352  W2        2029            0.0000000000
      6087      2029  TIP3      H2              5.5171594280      -26.7524424159       -7.6429063352  W2        2029            0.0000000000
      6088      2030  TIP3      OH2             3.7875994280      -31.0405124159       -7.1869063352  W2        2030            0.0000000000
      6089      2030  TIP3      H1              4.3528494280      -30.9190924159       -7.9497863352  W2        2030            0.0000000000
      6090      2030  TIP3      H2              4.1064894280      -30.4030124159       -6.5480563352  W2        2030            0.0000000000
      6091      2031  TIP3      OH2            10.0968194280      -25.5373224159       -6.4528563352  W2        2031            0.0000000000
      6092      2031  TIP3      H1              9.8564794280      -24.8750124159       -5.8049363352  W2        2031            0.0000000000
      6093      2031  TIP3      H2              9.8986394280      -26.3718024159       -6.0278963352  W2        2031            0.0000000000
      6094      2032  TIP3      OH2             4.6676694280      -26.6412424159       -2.4697163352  W2        2032            0.0000000000
      6095      2032  TIP3      H1              4.3564194280      -25.8589224159       -2.0143963352  W2        2032            0.0000000000
      6096      2032  TIP3      H2              4.0176894280      -26.7943324159       -3.1555163352  W2        2032            0.0000000000
      6097      2033  TIP3      OH2            10.6466294280      -31.2774024159      -15.0177863352  W2        2033            0.0000000000
      6098      2033  TIP3      H1             11.2261794280      -31.1273724159      -14.2708963352  W2        2033            0.0000000000
      6099      2033  TIP3      H2             11.0606294280      -30.8066624159      -15.7411463352  W2        2033            0.0000000000
      6100      2034  TIP3      OH2             1.5876594280      -30.4431324159       -3.2411463352  W2        2034            0.0000000000
      6101      2034  TIP3      H1              1.6579794280      -29.7924524159       -2.5426463352  W2        2034            0.0000000000
      6102      2034  TIP3      H2              0.6968794280      -30.3403824159       -3.5760563352  W2        2034            0.0000000000
      6103      2035  TIP3      OH2             8.3731194280      -24.5405524159      -11.5824763352  W2        2035            0.0000000000
      6104      2035  TIP3      H1              8.8468794280      -24.2449224159      -10.8050563352  W2        2035            0.0000000000
      6105      2035  TIP3      H2              7.8100494280      -23.8023924159      -11.8155163352  W2        2035            0.0000000000
      6106      2036  TIP3      OH2             2.9072594280      -24.5697424159       -1.7063363352  W2        2036            0.0000000000
      6107      2036  TIP3      H1              2.9147894280      -24.7057724159       -2.6537863352  W2        2036            0.0000000000
      6108      2036  TIP3      H2              1.9912994280      -24.6869324159       -1.4543363352  W2        2036            0.0000000000
      6109      2037  TIP3      OH2            14.3454694280      -39.5273624159      -15.2048163352  W2        2037            0.0000000000
      6110      2037  TIP3      H1             13.4455394280      -39.3884624159      -14.9097563352  W2        2037            0.0000000000
      6111      2037  TIP3      H2             14.5973094280      -38.6959024159      -15.6066463352  W2        2037            0.0000000000
      6112      2038  TIP3      OH2             2.4113194280      -30.7396424159      -13.2311263352  W2        2038            0.0000000000
      6113      2038  TIP3      H1              2.1194494280      -29.9714724159      -13.7219963352  W2        2038            0.0000000000
      6114      2038  TIP3      H2              1.7368394280      -31.3990224159      -13.3939863352  W2        2038            0.0000000000
      6115      2039  TIP3      OH2            15.5346094280      -25.1611224159      -16.8284263352  W2        2039            0.0000000000
      6116      2039  TIP3      H1             15.6079594280      -24.2221024159      -16.6578963352  W2        2039            0.0000000000
      6117      2039  TIP3      H2             16.4401194280      -25.4662624159      -16.8846963352  W2        2039            0.0000000000
      6118      2040  TIP3      OH2            -1.4956705720      -28.3767224159       -4.4161463352  W2        2040            0.0000000000
      6119      2040  TIP3      H1             -1.9968305720      -28.4047824159       -5.2311763352  W2        2040            0.0000000000
      6120      2040  TIP3      H2             -1.4903005720      -29.2824024159       -4.1064163352  W2        2040            0.0000000000
      6121      2041  TIP3      OH2            -1.7454005720      -25.5963424159       -7.5321263352  W2        2041            0.0000000000
      6122      2041  TIP3      H1             -0.7993405720      -25.7406424159       -7.5511763352  W2        2041            0.0000000000
      6123      2041  TIP3      H2             -1.8577705720      -24.8120624159       -6.9950063352  W2        2041            0.0000000000
      6124      2042  TIP3      OH2            16.4524494280      -24.9303724159       -1.8497563352  W2        2042            0.0000000000
      6125      2042  TIP3      H1             16.4031294280      -25.8855624159       -1.8869963352  W2        2042            0.0000000000
      6126      2042  TIP3      H2             15.6256794280      -24.6628424159       -1.4483763352  W2        2042            0.0000000000
      6127      2043  TIP3      OH2             7.4308494280      -25.3564524159       -2.9736163352  W2        2043            0.0000000000
      6128      2043  TIP3      H1              7.5183094280      -24.5299924159       -2.4987063352  W2        2043            0.0000000000
      6129      2043  TIP3      H2              6.5673594280      -25.6860724159       -2.7246863352  W2        2043            0.0000000000
      6130      2044  TIP3      OH2             7.8454294280      -21.5840824159      -13.1675563352  W2        2044            0.0000000000
      6131      2044  TIP3      H1              7.7700294280      -21.7053624159      -14.1140363352  W2        2044            0.0000000000
      6132      2044  TIP3      H2              7.8782994280      -20.6348124159      -13.0490963352  W2        2044            0.0000000000
      6133      2045  TIP3      OH2             1.4988094280      -22.7953824159      -11.3866563352  W2        2045            0.0000000000
      6134      2045  TIP3      H1              1.6508494280      -23.1433424159      -10.5080063352  W2        2045            0.0000000000
      6135      2045  TIP3      H2              0.6478494280      -23.1516524159      -11.6419363352  W2        2045            0.0000000000
      6136      2046  TIP3      OH2            10.9470294280      -22.4300624159      -16.1653163352  W2        2046            0.0000000000
      6137      2046  TIP3      H1             11.3218694280      -23.1744524159      -16.6360563352  W2        2046            0.0000000000
      6138      2046  TIP3      H2             10.9513994280      -22.7000024159      -15.2469863352  W2        2046            0.0000000000
      6139      2047  TIP3      OH2            10.6158394280      -22.5043524159      -13.4160963352  W2        2047            0.0000000000
      6140      2047  TIP3      H1              9.6808194280      -22.4041624159      -13.2373963352  W2        2047            0.0000000000
      6141      2047  TIP3      H2             10.8960294280      -23.2137524159      -12.8377763352  W2        2047            0.0000000000
      6142      2048  TIP3      OH2            13.6044294280      -33.4371224159       -1.3695363352  W2        2048            0.0000000000
      6143      2048  TIP3      H1             13.1971094280      -32.9565624159       -2.0902063352  W2        2048            0.0000000000
      6144      2048  TIP3      H2             13.6449994280      -34.3425224159       -1.6774563352  W2        2048            0.0000000000
      6145      2049  TIP3      OH2             0.7533794280      -27.0531824159       -3.3728663352  W2        2049            0.0000000000
      6146      2049  TIP3      H1              0.9695094280      -27.4146224159       -2.5132863352  W2        2049            0.0000000000
      6147      2049  TIP3      H2             -0.1021505720      -27.4278024159       -3.5825163352  W2        2049            0.0000000000
      6148      2050  TIP3      OH2             3.3721794280      -38.5831324159       -7.3774463352  W2        2050            0.0000000000
      6149      2050  TIP3      H1              2.5105494280      -38.6703124159       -7.7851563352  W2        2050            0.0000000000
      6150      2050  TIP3      H2              3.3497494280      -37.7271224159       -6.9496863352  W2        2050            0.0000000000
      6151      2051  TIP3      OH2             8.0349594280      -38.8610924159       -4.0027463352  W2        2051            0.0000000000
      6152      2051  TIP3      H1              8.4552694280      -39.2763824159       -3.2496863352  W2        2051            0.0000000000
      6153      2051  TIP3      H2              7.1019194280      -39.0397624159       -3.8855463352  W2        2051            0.0000000000
      6154      2052  TIP3      OH2            11.3614494280      -35.1055724159       -3.1492963352  W2        2052            0.0000000000
      6155      2052  TIP3      H1             10.8473994280      -35.2313524159       -2.3516963352  W2        2052            0.0000000000
      6156      2052  TIP3      H2             11.2059194280      -34.1932624159       -3.3936763352  W2        2052            0.0000000000
      6157      2053  TIP3      OH2            12.1239394280      -30.2445724159      -17.3879963352  W2        2053            0.0000000000
      6158      2053  TIP3      H1             12.1660194280      -30.4671824159      -18.3179963352  W2        2053            0.0000000000
      6159      2053  TIP3      H2             12.9731494280      -29.8458624159      -17.1980063352  W2        2053            0.0000000000
      6160      2054  TIP3      OH2             7.6966894280      -36.3687524159      -16.7176663352  W2        2054            0.0000000000
      6161      2054  TIP3      H1              7.4431694280      -36.3495924159      -15.7948563352  W2        2054            0.0000000000
      6162      2054  TIP3      H2              7.4398994280      -37.2402124159      -17.0190463352  W2        2054            0.0000000000
      6163      2055  TIP3      OH2             3.4631894280      -33.6176824159       -6.2824263352  W2        2055            0.0000000000
      6164      2055  TIP3      H1              2.8213994280      -33.6579524159       -5.5734163352  W2        2055            0.0000000000
      6165      2055  TIP3      H2              3.5003894280      -32.6912124159       -6.5201263352  W2        2055            0.0000000000
      6166      2056  TIP3      OH2             3.4600994280      -33.3966724159      -11.3704263352  W2        2056            0.0000000000
      6167      2056  TIP3      H1              2.5673894280      -33.7370624159      -11.4290463352  W2        2056            0.0000000000
      6168      2056  TIP3      H2              3.9107594280      -33.7735824159      -12.1261063352  W2        2056            0.0000000000
      6169      2057  TIP3      OH2             8.9956494280      -32.9806424159      -12.5533463352  W2        2057            0.0000000000
      6170      2057  TIP3      H1              8.5866794280      -32.1657824159      -12.8448663352  W2        2057            0.0000000000
      6171      2057  TIP3      H2              9.7162694280      -33.1206324159      -13.1676363352  W2        2057            0.0000000000
      6172      2058  TIP3      OH2             8.0978094280      -32.8050024159       -1.0652763352  W2        2058            0.0000000000
      6173      2058  TIP3      H1              7.5351894280      -33.5098424159       -0.7444963352  W2        2058            0.0000000000
      6174      2058  TIP3      H2              8.9241494280      -32.9258124159       -0.5975163352  W2        2058            0.0000000000
      6175      2059  TIP3      OH2            10.0004194280      -33.5346024159       -9.7393763352  W2        2059            0.0000000000
      6176      2059  TIP3      H1              9.8048694280      -32.9289224159      -10.4543163352  W2        2059            0.0000000000
      6177      2059  TIP3      H2             10.1816794280      -34.3680824159      -10.1737463352  W2        2059            0.0000000000
      6178      2060  TIP3      OH2             1.2132394280      -33.2973324159       -4.4152263352  W2        2060            0.0000000000
      6179      2060  TIP3      H1              1.1751794280      -32.8971724159       -3.5465163352  W2        2060            0.0000000000
      6180      2060  TIP3      H2              0.7223494280      -34.1140924159       -4.3249363352  W2        2060            0.0000000000
      6181      2061  TIP3      OH2             4.5789794280      -35.9231024159      -17.6166263352  W2        2061            0.0000000000
      6182      2061  TIP3      H1              4.1480494280      -36.3680924159      -16.8868863352  W2        2061            0.0000000000
      6183      2061  TIP3      H2              3.8608494280      -35.5514724159      -18.1288763352  W2        2061            0.0000000000
      6184      2062  TIP3      OH2            -2.1786805720      -36.1811524159      -10.5647563352  W2        2062            0.0000000000
      6185      2062  TIP3      H1             -1.5479105720      -36.2099424159       -9.8453663352  W2        2062            0.0000000000
      6186      2062  TIP3      H2             -1.7292505720      -36.6062824159      -11.2951663352  W2        2062            0.0000000000
      6187      2063  TIP3      OH2            -0.9044705720      -35.4349524159      -15.1407163352  W2        2063            0.0000000000
      6188      2063  TIP3      H1             -0.4303005720      -34.8439624159      -15.7256263352  W2        2063            0.0000000000
      6189      2063  TIP3      H2             -1.6218305720      -34.9046624159      -14.7937063352  W2        2063            0.0000000000
      6190      2064  TIP3      OH2             9.2643394280      -31.8964724159       -5.0681363352  W2        2064            0.0000000000
      6191      2064  TIP3      H1              9.5878194280      -32.5275024159       -5.7110863352  W2        2064            0.0000000000
      6192      2064  TIP3      H2              8.8242694280      -32.4312524159       -4.4073963352  W2        2064            0.0000000000
      6193      2065  TIP3      OH2             6.0416294280      -35.9689224159      -10.2840163352  W2        2065            0.0000000000
      6194      2065  TIP3      H1              5.1307394280      -35.9122424159       -9.9954163352  W2        2065            0.0000000000
      6195      2065  TIP3      H2              6.5469194280      -36.0293724159       -9.4732963352  W2        2065            0.0000000000
      6196      2066  TIP3      OH2             0.8699694280      -34.3402924159      -11.4572563352  W2        2066            0.0000000000
      6197      2066  TIP3      H1             -0.0192305720      -34.2407424159      -11.7972963352  W2        2066            0.0000000000
      6198      2066  TIP3      H2              1.1664594280      -35.1819924159      -11.8034663352  W2        2066            0.0000000000
      6199      2067  TIP3      OH2             4.5231494280      -34.3400324159      -13.8007963352  W2        2067            0.0000000000
      6200      2067  TIP3      H1              5.4546994280      -34.2110324159      -13.6224863352  W2        2067            0.0000000000
      6201      2067  TIP3      H2              4.3081794280      -33.6706024159      -14.4503263352  W2        2067            0.0000000000
      6202      2068  TIP3      OH2            10.4468194280      -36.7342924159       -7.0198363352  W2        2068            0.0000000000
      6203      2068  TIP3      H1              9.7699794280      -36.6029824159       -6.3558663352  W2        2068            0.0000000000
      6204      2068  TIP3      H2              9.9613094280      -36.8893424159       -7.8300663352  W2        2068            0.0000000000
      6205      2069  TIP3      OH2             3.1971694280      -33.1458124159      -16.2341863352  W2        2069            0.0000000000
      6206      2069  TIP3      H1              2.6546794280      -33.5254324159      -16.9254263352  W2        2069            0.0000000000
      6207      2069  TIP3      H2              4.0306594280      -32.9513424159      -16.6627763352  W2        2069            0.0000000000
      6208      2070  TIP3      OH2            13.7343294280      -21.0627524159       -0.7430763352  W2        2070            0.0000000000
      6209      2070  TIP3      H1             13.9341994280      -20.6385624159       -1.5775463352  W2        2070            0.0000000000
      6210      2070  TIP3      H2             14.3896994280      -20.7189324159       -0.1360363352  W2        2070            0.0000000000
      6211      2071  TIP3      OH2             1.3323094280      -28.5886224159       -1.1350263352  W2        2071            0.0000000000
      6212      2071  TIP3      H1              2.0645494280      -28.3340324159       -0.5735763352  W2        2071            0.0000000000
      6213      2071  TIP3      H2              0.5521794280      -28.3840824159       -0.6194863352  W2        2071            0.0000000000
      6214      2072  TIP3      OH2             7.3615994280      -33.1816224159       -8.3970563352  W2        2072            0.0000000000
      6215      2072  TIP3      H1              7.9259394280      -33.7279624159       -8.9440963352  W2        2072            0.0000000000
      6216      2072  TIP3      H2              7.2139394280      -33.7034324159       -7.6082963352  W2        2072            0.0000000000
      6217      2073  TIP3      OH2             2.3635694280      -37.0450124159      -11.9785763352  W2        2073            0.0000000000
      6218      2073  TIP3      H1              2.0465194280      -37.9474824159      -12.0140363352  W2        2073            0.0000000000
      6219      2073  TIP3      H2              3.1449794280      -37.0432724159      -12.5314163352  W2        2073            0.0000000000
      6220      2074  TIP3      OH2             5.9881894280      -34.7930124159       -5.9830163352  W2        2074            0.0000000000
      6221      2074  TIP3      H1              5.1527194280      -34.3390624159       -5.8727763352  W2        2074            0.0000000000
      6222      2074  TIP3      H2              6.5122494280      -34.5171624159       -5.2310263352  W2        2074            0.0000000000
      6223      2075  TIP3      OH2             6.5324494280      -28.5802424159      -14.2983763352  W2        2075            0.0000000000
      6224      2075  TIP3      H1              5.7875494280      -29.0877124159      -14.6205863352  W2        2075            0.0000000000
      6225      2075  TIP3      H2              6.3981694280      -28.5314424159      -13.3518963352  W2        2075            0.0000000000
      6226      2076  TIP3      OH2            13.6823394280      -29.4474224159       -5.5116163352  W2        2076            0.0000000000
      6227      2076  TIP3      H1             14.3242194280      -28.9907924159       -6.0553963352  W2        2076            0.0000000000
      6228      2076  TIP3      H2             12.8520294280      -29.3341824159       -5.9742063352  W2        2076            0.0000000000
      6229      2077  TIP3      OH2            10.4301294280      -35.7662524159      -16.0991163352  W2        2077            0.0000000000
      6230      2077  TIP3      H1              9.4915494280      -35.6546924159      -16.2502363352  W2        2077            0.0000000000
      6231      2077  TIP3      H2             10.7273394280      -34.9095624159      -15.7925463352  W2        2077            0.0000000000
      6232      2078  TIP3      OH2             8.0516594280      -28.3959124159       -3.0614663352  W2        2078            0.0000000000
      6233      2078  TIP3      H1              7.7062694280      -28.7776724159       -2.2545063352  W2        2078            0.0000000000
      6234      2078  TIP3      H2              7.8516694280      -27.4625524159       -2.9901763352  W2        2078            0.0000000000
      6235      2079  TIP3      OH2            11.1484794280      -33.8989824159      -14.4383763352  W2        2079            0.0000000000
      6236      2079  TIP3      H1             12.0403794280      -34.0364824159      -14.1192563352  W2        2079            0.0000000000
      6237      2079  TIP3      H2             11.2048394280      -33.1083724159      -14.9750263352  W2        2079            0.0000000000
      6238      2080  TIP3      OH2             1.6572794280      -29.2852424159       -8.5285863352  W2        2080            0.0000000000
      6239      2080  TIP3      H1              2.4019994280      -29.2876724159       -9.1299363352  W2        2080            0.0000000000
      6240      2080  TIP3      H2              1.7349394280      -30.1088624159       -8.0470763352  W2        2080            0.0000000000
      6241      2081  TIP3      OH2             8.6578594280      -27.1218124159      -15.2729163352  W2        2081            0.0000000000
      6242      2081  TIP3      H1              8.3626994280      -26.2950224159      -14.8914363352  W2        2081            0.0000000000
      6243      2081  TIP3      H2              7.9548594280      -27.7411224159      -15.0767763352  W2        2081            0.0000000000
      6244      2082  TIP3      OH2            -1.3347505720      -30.8245524159       -3.2137363352  W2        2082            0.0000000000
      6245      2082  TIP3      H1             -1.1118905720      -31.2425924159       -2.3819863352  W2        2082            0.0000000000
      6246      2082  TIP3      H2             -1.9367405720      -31.4370524159       -3.6364563352  W2        2082            0.0000000000
      6247      2083  TIP3      OH2             5.6817394280      -31.3075624159       -1.0007663352  W2        2083            0.0000000000
      6248      2083  TIP3      H1              5.3858194280      -31.4732624159       -1.8958563352  W2        2083            0.0000000000
      6249      2083  TIP3      H2              6.6132594280      -31.5275324159       -1.0113763352  W2        2083            0.0000000000
      6250      2084  TIP3      OH2            10.3020194280      -25.9343624159       -3.1109663352  W2        2084            0.0000000000
      6251      2084  TIP3      H1              9.4014494280      -25.7511024159       -3.3785763352  W2        2084            0.0000000000
      6252      2084  TIP3      H2             10.3361294280      -25.6754324159       -2.1900863352  W2        2084            0.0000000000
      6253      2085  TIP3      OH2            16.0333494280      -33.6895724159      -14.7437063352  W2        2085            0.0000000000
      6254      2085  TIP3      H1             15.4789794280      -34.0857724159      -15.4159563352  W2        2085            0.0000000000
      6255      2085  TIP3      H2             16.1337094280      -32.7790524159      -15.0213763352  W2        2085            0.0000000000
      6256      2086  TIP3      OH2            15.9965494280      -27.8894024159       -1.9065563352  W2        2086            0.0000000000
      6257      2086  TIP3      H1             15.1453994280      -27.6510224159       -2.2739163352  W2        2086            0.0000000000
      6258      2086  TIP3      H2             16.5868894280      -27.9060824159       -2.6598463352  W2        2086            0.0000000000
      6259      2087  TIP3      OH2            14.3285194280      -24.9035324159      -14.2784963352  W2        2087            0.0000000000
      6260      2087  TIP3      H1             13.9556294280      -25.7291524159      -13.9694363352  W2        2087            0.0000000000
      6261      2087  TIP3      H2             14.6058694280      -25.0865924159      -15.1761563352  W2        2087            0.0000000000
      6262      2088  TIP3      OH2            11.4889094280      -30.0955824159       -7.2573063352  W2        2088            0.0000000000
      6263      2088  TIP3      H1             10.5605994280      -30.3273924159       -7.2843763352  W2        2088            0.0000000000
      6264      2088  TIP3      H2             11.9400194280      -30.8726024159       -7.5874263352  W2        2088            0.0000000000
      6265      2089  TIP3      OH2             4.0322194280      -25.7674224159      -11.1244363352  W2        2089            0.0000000000
      6266      2089  TIP3      H1              4.5594394280      -24.9939824159      -11.3245563352  W2        2089            0.0000000000
      6267      2089  TIP3      H2              3.1520694280      -25.5425024159      -11.4260363352  W2        2089            0.0000000000
      6268      2090  TIP3      OH2            -0.2130105720      -30.9050124159      -16.5371963352  W2        2090            0.0000000000
      6269      2090  TIP3      H1              0.4029794280      -30.2782924159      -16.1577163352  W2        2090            0.0000000000
      6270      2090  TIP3      H2             -1.0747505720      -30.5890324159      -16.2655463352  W2        2090            0.0000000000
      6271      2091  TIP3      OH2             5.4594494280      -28.1044324159      -11.5480063352  W2        2091            0.0000000000
      6272      2091  TIP3      H1              5.2184494280      -27.1789924159      -11.5064763352  W2        2091            0.0000000000
      6273      2091  TIP3      H2              4.7188094280      -28.5633024159      -11.1516163352  W2        2091            0.0000000000
      6274      2092  TIP3      OH2             5.9741094280      -23.9550724159       -5.2328963352  W2        2092            0.0000000000
      6275      2092  TIP3      H1              6.3365794280      -23.1005124159       -5.4664563352  W2        2092            0.0000000000
      6276      2092  TIP3      H2              6.5056294280      -24.2469124159       -4.4922663352  W2        2092            0.0000000000
      6277      2093  TIP3      OH2             4.1425294280      -23.0826724159      -12.0027863352  W2        2093            0.0000000000
      6278      2093  TIP3      H1              3.1925794280      -22.9769324159      -11.9514563352  W2        2093            0.0000000000
      6279      2093  TIP3      H2              4.4943394280      -22.2619324159      -11.6580363352  W2        2093            0.0000000000
      6280      2094  TIP3      OH2             9.5181894280      -27.8560024159       -5.5323363352  W2        2094            0.0000000000
      6281      2094  TIP3      H1              9.0923194280      -28.0838324159       -4.7059363352  W2        2094            0.0000000000
      6282      2094  TIP3      H2             10.0987694280      -28.5948224159       -5.7148063352  W2        2094            0.0000000000
      6283      2095  TIP3      OH2            11.7210794280      -26.9269524159      -16.4584363352  W2        2095            0.0000000000
      6284      2095  TIP3      H1             12.0743894280      -27.3069724159      -15.6540863352  W2        2095            0.0000000000
      6285      2095  TIP3      H2             10.7724294280      -27.0204724159      -16.3715063352  W2        2095            0.0000000000
      6286      2096  TIP3      OH2            12.1766094280      -23.3040524159       -3.0628563352  W2        2096            0.0000000000
      6287      2096  TIP3      H1             11.5749294280      -23.8597624159       -3.5582263352  W2        2096            0.0000000000
      6288      2096  TIP3      H2             12.4579794280      -22.6370724159       -3.6891163352  W2        2096            0.0000000000
      6289      2097  TIP3      OH2            16.2245194280      -22.4477024159      -16.2574163352  W2        2097            0.0000000000
      6290      2097  TIP3      H1             16.9683094280      -21.8616524159      -16.3972563352  W2        2097            0.0000000000
      6291      2097  TIP3      H2             15.5303294280      -21.8791224159      -15.9241763352  W2        2097            0.0000000000
      6292      2098  TIP3      OH2             0.2991994280      -36.0712824159       -3.6555963352  W2        2098            0.0000000000
      6293      2098  TIP3      H1             -0.5935705720      -35.7327424159       -3.7231963352  W2        2098            0.0000000000
      6294      2098  TIP3      H2              0.2004794280      -36.9266724159       -3.2375163352  W2        2098            0.0000000000
      6295      2099  TIP3      OH2            12.5870094280      -28.2547524159      -14.2316463352  W2        2099            0.0000000000
      6296      2099  TIP3      H1             12.3097694280      -28.9828224159      -13.6755363352  W2        2099            0.0000000000
      6297      2099  TIP3      H2             13.5143094280      -28.1355524159      -14.0263863352  W2        2099            0.0000000000
      6298      2100  TIP3      OH2            -0.0496005720      -24.2668424159       -5.2206563352  W2        2100            0.0000000000
      6299      2100  TIP3      H1              0.1674294280      -25.1986024159       -5.2516863352  W2        2100            0.0000000000
      6300      2100  TIP3      H2              0.1967494280      -23.9923424159       -4.3373763352  W2        2100            0.0000000000
      6301      2101  TIP3      OH2             5.8118594280      -25.8153424159      -18.0114363352  W2        2101            0.0000000000
      6302      2101  TIP3      H1              6.0508394280      -26.5635324159      -18.5585463352  W2        2101            0.0000000000
      6303      2101  TIP3      H2              5.5429894280      -26.2031724159      -17.1786563352  W2        2101            0.0000000000
      6304      2102  TIP3      OH2             4.7489194280      -26.2449624159      -15.5551763352  W2        2102            0.0000000000
      6305      2102  TIP3      H1              4.8957194280      -26.7649824159      -14.7650863352  W2        2102            0.0000000000
      6306      2102  TIP3      H2              4.7460894280      -25.3382024159      -15.2485863352  W2        2102            0.0000000000
      6307      2103  TIP3      OH2             1.2020294280      -28.9926324159      -15.0446363352  W2        2103            0.0000000000
      6308      2103  TIP3      H1              0.5159594280      -28.6403824159      -14.4776663352  W2        2103            0.0000000000
      6309      2103  TIP3      H2              1.7248194280      -28.2296724159      -15.2912063352  W2        2103            0.0000000000
      6310      2104  TIP3      OH2             9.0335394280      -36.3302524159       -4.7657363352  W2        2104            0.0000000000
      6311      2104  TIP3      H1              9.7323294280      -36.2563824159       -4.1157663352  W2        2104            0.0000000000
      6312      2104  TIP3      H2              8.6526794280      -37.1947524159       -4.6114463352  W2        2104            0.0000000000
      6313      2105  TIP3      OH2             9.8180294280      -36.6780824159      -13.6685063352  W2        2105            0.0000000000
      6314      2105  TIP3      H1             10.0378594280      -36.2065424159      -14.4719663352  W2        2105            0.0000000000
      6315      2105  TIP3      H2             10.3764294280      -36.2838224159      -12.9984463352  W2        2105            0.0000000000
      6316      2106  TIP3      OH2             7.4866394280      -24.5476024159      -14.8057563352  W2        2106            0.0000000000
      6317      2106  TIP3      H1              6.6702494280      -24.0506324159      -14.7533263352  W2        2106            0.0000000000
      6318      2106  TIP3      H2              8.0162694280      -24.0722524159      -15.4458763352  W2        2106            0.0000000000
      6319      2107  TIP3      OH2             7.0180194280      -34.9502024159      -12.8336663352  W2        2107            0.0000000000
      6320      2107  TIP3      H1              7.8302794280      -34.4458824159      -12.7874963352  W2        2107            0.0000000000
      6321      2107  TIP3      H2              6.7733194280      -35.0952324159      -11.9197063352  W2        2107            0.0000000000
      6322      2108  TIP3      OH2             7.5536594280      -33.9639324159       -3.6490063352  W2        2108            0.0000000000
      6323      2108  TIP3      H1              7.6726894280      -33.3903924159       -2.8919663352  W2        2108            0.0000000000
      6324      2108  TIP3      H2              8.2091194280      -34.6519924159       -3.5342263352  W2        2108            0.0000000000
      6325      2109  TIP3      OH2             7.9016894280      -37.8689024159      -11.8955563352  W2        2109            0.0000000000
      6326      2109  TIP3      H1              7.5550394280      -37.2518424159      -11.2511263352  W2        2109            0.0000000000
      6327      2109  TIP3      H2              8.5603794280      -37.3683324159      -12.3770063352  W2        2109            0.0000000000
      6328      2110  TIP3      OH2             4.8249494280      -23.5038824159      -14.8240663352  W2        2110            0.0000000000
      6329      2110  TIP3      H1              4.9858194280      -22.7041324159      -15.3248063352  W2        2110            0.0000000000
      6330      2110  TIP3      H2              4.6277294280      -23.1972824159      -13.9390063352  W2        2110            0.0000000000
      6331      2111  TIP3      OH2             3.5593894280      -36.8059624159      -15.2083063352  W2        2111            0.0000000000
      6332      2111  TIP3      H1              3.4758694280      -35.9176524159      -14.8616663352  W2        2111            0.0000000000
      6333      2111  TIP3      H2              4.4494194280      -37.0712924159      -14.9766263352  W2        2111            0.0000000000
      6334      2112  TIP3      OH2            13.7582394280      -36.0569024159       -2.8140363352  W2        2112            0.0000000000
      6335      2112  TIP3      H1             12.8418194280      -35.7947324159       -2.9016663352  W2        2112            0.0000000000
      6336      2112  TIP3      H2             14.0937394280      -36.0600024159       -3.7105063352  W2        2112            0.0000000000
      6337      2113  TIP3      OH2            12.3603394280      -32.3068024159       -8.7183063352  W2        2113            0.0000000000
      6338      2113  TIP3      H1             11.5627794280      -32.7217824159       -9.0468063352  W2        2113            0.0000000000
      6339      2113  TIP3      H2             12.8054494280      -32.9974324159       -8.2272563352  W2        2113            0.0000000000
      6340      2114  TIP3      OH2             1.8179194280      -26.3787424159      -16.1478563352  W2        2114            0.0000000000
      6341      2114  TIP3      H1              2.4100694280      -25.6792624159      -15.8716163352  W2        2114            0.0000000000
      6342      2114  TIP3      H2              2.2772194280      -26.8117924159      -16.8673963352  W2        2114            0.0000000000
      6343      2115  TIP3      OH2             0.1338394280      -33.7144424159      -17.0319163352  W2        2115            0.0000000000
      6344      2115  TIP3      H1              0.0890994280      -32.7751324159      -16.8532163352  W2        2115            0.0000000000
      6345      2115  TIP3      H2             -0.7538405720      -33.9499524159      -17.3017063352  W2        2115            0.0000000000
      6346      2116  TIP3      OH2            13.4467994280      -23.0505524159       -7.0959563352  W2        2116            0.0000000000
      6347      2116  TIP3      H1             13.2912294280      -22.3721124159       -7.7530263352  W2        2116            0.0000000000
      6348      2116  TIP3      H2             14.3794394280      -22.9786224159       -6.8928963352  W2        2116            0.0000000000
      6349      2117  TIP3      OH2             0.9420394280      -38.9327824159       -8.3588163352  W2        2117            0.0000000000
      6350      2117  TIP3      H1              0.7130194280      -38.8735324159       -9.2863163352  W2        2117            0.0000000000
      6351      2117  TIP3      H2              0.4993794280      -39.7242324159       -8.0524063352  W2        2117            0.0000000000
      6352      2118  TIP3      OH2            -0.1276305720      -24.9920724159      -12.1982363352  W2        2118            0.0000000000
      6353      2118  TIP3      H1             -0.9597705720      -24.5198024159      -12.1710963352  W2        2118            0.0000000000
      6354      2118  TIP3      H2              0.4181994280      -24.4823124159      -12.7969263352  W2        2118            0.0000000000
      6355      2119  TIP3      OH2            -0.8392605720      -22.3797024159       -0.8684363352  W2        2119            0.0000000000
      6356      2119  TIP3      H1             -0.2990405720      -22.5963024159       -0.1085163352  W2        2119            0.0000000000
      6357      2119  TIP3      H2             -1.3204605720      -23.1851024159       -1.0581863352  W2        2119            0.0000000000
      6358      2120  TIP3      OH2             3.7580794280      -23.4602624159        0.7519836648  W2        2120            0.0000000000
      6359      2120  TIP3      H1              4.5257994280      -23.9191824159        1.0929036648  W2        2120            0.0000000000
      6360      2120  TIP3      H2              3.7366994280      -23.6862824159       -0.1778963352  W2        2120            0.0000000000
      6361      2121  TIP3      OH2             7.8500394280      -23.9522024159      -17.8728363352  W2        2121            0.0000000000
      6362      2121  TIP3      H1              7.2061394280      -24.5833424159      -17.5514663352  W2        2121            0.0000000000
      6363      2121  TIP3      H2              8.6118694280      -24.4834024159      -18.1044863352  W2        2121            0.0000000000
      6364      2122  TIP3      OH2            10.3349494280      -25.0801524159       -0.5188663352  W2        2122            0.0000000000
      6365      2122  TIP3      H1              9.9838994280      -25.9368524159       -0.2758263352  W2        2122            0.0000000000
      6366      2122  TIP3      H2             11.0612694280      -24.9374824159        0.0880336648  W2        2122            0.0000000000
      6367      2123  TIP3      OH2            12.4543294280      -24.1352124159      -17.6390363352  W2        2123            0.0000000000
      6368      2123  TIP3      H1             12.7373694280      -24.9296924159      -17.1863463352  W2        2123            0.0000000000
      6369      2123  TIP3      H2             13.1941194280      -23.9021124159      -18.1999263352  W2        2123            0.0000000000
      6370      2124  TIP3      OH2            -0.9323105720      -28.5692924159        0.0859936648  W2        2124            0.0000000000
      6371      2124  TIP3      H1             -0.7882605720      -29.4712224159       -0.2003363352  W2        2124            0.0000000000
      6372      2124  TIP3      H2             -1.7045705720      -28.2830824159       -0.4017763352  W2        2124            0.0000000000
      6373      2125  TIP3      OH2             3.4090594280      -28.2257224159      -17.7815463352  W2        2125            0.0000000000
      6374      2125  TIP3      H1              3.4734694280      -29.0197624159      -17.2509063352  W2        2125            0.0000000000
      6375      2125  TIP3      H2              4.0619794280      -28.3444424159      -18.4713463352  W2        2125            0.0000000000
      6376      2126  TIP3      OH2             5.7232994280      -28.5994824159       -0.4813663352  W2        2126            0.0000000000
      6377      2126  TIP3      H1              5.3946794280      -28.3286724159       -1.3386263352  W2        2126            0.0000000000
      6378      2126  TIP3      H2              5.8751194280      -29.5405024159       -0.5688663352  W2        2126            0.0000000000
      6379      2127  TIP3      OH2             8.7613994280      -27.1785524159      -18.0457463352  W2        2127            0.0000000000
      6380      2127  TIP3      H1              8.4928094280      -26.9983424159      -17.1448563352  W2        2127            0.0000000000
      6381      2127  TIP3      H2              8.5549594280      -28.1039324159      -18.1771663352  W2        2127            0.0000000000
      6382      2128  TIP3      OH2            11.4578194280      -28.6837524159       -3.0981363352  W2        2128            0.0000000000
      6383      2128  TIP3      H1             12.2032994280      -28.0953824159       -3.2177363352  W2        2128            0.0000000000
      6384      2128  TIP3      H2             10.7004994280      -28.1017824159       -3.0348263352  W2        2128            0.0000000000
      6385      2129  TIP3      OH2            -0.0996605720      -31.3689624159       -0.4940763352  W2        2129            0.0000000000
      6386      2129  TIP3      H1              0.3084594280      -32.2263024159       -0.6150163352  W2        2129            0.0000000000
      6387      2129  TIP3      H2             -0.3599005720      -31.3548324159        0.4269536648  W2        2129            0.0000000000
      6388      2130  TIP3      OH2             4.5584394280      -30.2531024159      -15.4757463352  W2        2130            0.0000000000
      6389      2130  TIP3      H1              4.0986394280      -30.7372724159      -14.7898963352  W2        2130            0.0000000000
      6390      2130  TIP3      H2              4.8133094280      -30.9215624159      -16.1116963352  W2        2130            0.0000000000
      6391      2131  TIP3      OH2             3.8473694280      -32.3603924159       -3.1197863352  W2        2131            0.0000000000
      6392      2131  TIP3      H1              3.2289794280      -31.6857324159       -2.8393163352  W2        2131            0.0000000000
      6393      2131  TIP3      H2              4.1914894280      -32.0390024159       -3.9531663352  W2        2131            0.0000000000
      6394      2132  TIP3      OH2             5.6294794280      -32.0099224159      -17.2134263352  W2        2132            0.0000000000
      6395      2132  TIP3      H1              5.4489794280      -32.1648024159      -18.1405963352  W2        2132            0.0000000000
      6396      2132  TIP3      H2              6.5795294280      -31.9020524159      -17.1686363352  W2        2132            0.0000000000
      6397      2133  TIP3      OH2             8.8671894280      -29.8888624159        0.1576936648  W2        2133            0.0000000000
      6398      2133  TIP3      H1              9.8203094280      -29.8049524159        0.1302936648  W2        2133            0.0000000000
      6399      2133  TIP3      H2              8.7066494280      -30.6006824159        0.7771836648  W2        2133            0.0000000000
      6400      2134  TIP3      OH2            15.0193094280      -29.6555024159      -17.7676163352  W2        2134            0.0000000000
      6401      2134  TIP3      H1             14.7457894280      -30.0799524159      -18.5807863352  W2        2134            0.0000000000
      6402      2134  TIP3      H2             15.0587194280      -28.7240524159      -17.9845763352  W2        2134            0.0000000000
      6403      2135  TIP3      OH2             4.1867394280      -35.0053124159       -2.0374763352  W2        2135            0.0000000000
      6404      2135  TIP3      H1              4.3368294280      -35.7341824159       -2.6395063352  W2        2135            0.0000000000
      6405      2135  TIP3      H2              4.1889794280      -34.2281424159       -2.5962563352  W2        2135            0.0000000000
      6406      2136  TIP3      OH2             4.5993094280      -36.6357324159       -4.5447363352  W2        2136            0.0000000000
      6407      2136  TIP3      H1              5.1350594280      -36.1840624159       -5.1968063352  W2        2136            0.0000000000
      6408      2136  TIP3      H2              3.7472694280      -36.7437524159       -4.9673263352  W2        2136            0.0000000000
      6409      2137  TIP3      OH2             6.1811494280      -31.1961124159       -4.3052163352  W2        2137            0.0000000000
      6410      2137  TIP3      H1              6.9316294280      -31.3523624159       -4.8784363352  W2        2137            0.0000000000
      6411      2137  TIP3      H2              5.8419794280      -30.3444524159       -4.5806663352  W2        2137            0.0000000000
      6412      2138  TIP3      OH2            10.5967694280      -33.3809324159        0.7233136648  W2        2138            0.0000000000
      6413      2138  TIP3      H1             10.7888994280      -34.3119924159        0.6117636648  W2        2138            0.0000000000
      6414      2138  TIP3      H2             11.4543994280      -32.9559824159        0.7128536648  W2        2138            0.0000000000
      6415      2139  TIP3      OH2            11.9134894280      -30.5924124159       -1.1994163352  W2        2139            0.0000000000
      6416      2139  TIP3      H1             11.6319894280      -29.8829524159       -1.7770363352  W2        2139            0.0000000000
      6417      2139  TIP3      H2             12.8559194280      -30.6651124159       -1.3502963352  W2        2139            0.0000000000
      6418      2140  TIP3      OH2             2.6653694280      -33.8069624159       -0.1259163352  W2        2140            0.0000000000
      6419      2140  TIP3      H1              1.8982694280      -34.3394824159       -0.3361563352  W2        2140            0.0000000000
      6420      2140  TIP3      H2              3.3442694280      -34.1169224159       -0.7252863352  W2        2140            0.0000000000
      6421      2141  TIP3      OH2             5.4048594280      -39.1791624159       -4.1133763352  W2        2141            0.0000000000
      6422      2141  TIP3      H1              5.3068194280      -38.2328424159       -4.2187563352  W2        2141            0.0000000000
      6423      2141  TIP3      H2              4.6624794280      -39.5517824159       -4.5890263352  W2        2141            0.0000000000
      6424      2142  TIP3      OH2             6.6689094280      -34.8576224159       -0.5495363352  W2        2142            0.0000000000
      6425      2142  TIP3      H1              6.4334494280      -35.0769524159        0.3519536648  W2        2142            0.0000000000
      6426      2142  TIP3      H2              5.8855994280      -35.0645024159       -1.0592863352  W2        2142            0.0000000000
      6427      2143  TIP3      OH2             9.3845694280      -35.7302724159       -1.4741863352  W2        2143            0.0000000000
      6428      2143  TIP3      H1              8.4371094280      -35.6983024159       -1.3418563352  W2        2143            0.0000000000
      6429      2143  TIP3      H2              9.6972394280      -36.3555624159       -0.8203663352  W2        2143            0.0000000000
      6430      2144  TIP3      OH2            11.0187194280      -37.0961624159        0.5310036648  W2        2144            0.0000000000
      6431      2144  TIP3      H1             10.9218994280      -38.0484324159        0.5251936648  W2        2144            0.0000000000
      6432      2144  TIP3      H2             10.6970294280      -36.8274824159        1.3915536648  W2        2144            0.0000000000
      6433      2145  TIP3      OH2             0.8456494280      -35.8865824159       -0.4214463352  W2        2145            0.0000000000
      6434      2145  TIP3      H1              1.0573894280      -36.5929724159       -1.0316963352  W2        2145            0.0000000000
      6435      2145  TIP3      H2              0.7343994280      -36.3239824159        0.4226736648  W2        2145            0.0000000000
      6436      2146  TIP3      OH2             5.6266694280      -39.8854224159       -1.4420963352  W2        2146            0.0000000000
      6437      2146  TIP3      H1              6.3385094280      -40.5252024159       -1.4561863352  W2        2146            0.0000000000
      6438      2146  TIP3      H2              5.5257094280      -39.6185924159       -2.3557863352  W2        2146            0.0000000000
      6439      2147  TIP3      OH2             5.9804194280      -38.2025824159        0.6115336648  W2        2147            0.0000000000
      6440      2147  TIP3      H1              5.8486394280      -38.6782024159       -0.2086163352  W2        2147            0.0000000000
      6441      2147  TIP3      H2              5.3811594280      -37.4582224159        0.5562436648  W2        2147            0.0000000000
      6442      2148  TIP3      OH2             5.5266494280      -21.3195524159      -16.2120663352  W2        2148            0.0000000000
      6443      2148  TIP3      H1              6.4597194280      -21.1616824159      -16.0682263352  W2        2148            0.0000000000
      6444      2148  TIP3      H2              5.2625294280      -20.6442524159      -16.8369163352  W2        2148            0.0000000000
      6445      2149  TIP3      OH2            -0.9048605720      -26.6831724159      -16.7292563352  W2        2149            0.0000000000
      6446      2149  TIP3      H1              0.0090594280      -26.6042824159      -16.4558663352  W2        2149            0.0000000000
      6447      2149  TIP3      H2             -0.8975505720      -27.3702124159      -17.3956963352  W2        2149            0.0000000000
      6448      2150  TIP3      OH2            -2.2558005720      -21.2903224159      -11.6518663352  W2        2150            0.0000000000
      6449      2150  TIP3      H1             -2.9030905720      -21.7521524159      -12.1847463352  W2        2150            0.0000000000
      6450      2150  TIP3      H2             -1.9013405720      -21.9619924159      -11.0692463352  W2        2150            0.0000000000
      6451      2151  TIP3      OH2            -1.3858805720      -23.2096224159       -9.8472463352  W2        2151            0.0000000000
      6452      2151  TIP3      H1             -1.7202005720      -24.0898924159       -9.6752263352  W2        2151            0.0000000000
      6453      2151  TIP3      H2             -1.1636405720      -22.8641224159       -8.9826863352  W2        2151            0.0000000000
      6454      2152  TIP3      OH2            16.1625994280      -22.3999824159       -6.8667663352  W2        2152            0.0000000000
      6455      2152  TIP3      H1             16.1412694280      -22.2151424159       -5.9278263352  W2        2152            0.0000000000
      6456      2152  TIP3      H2             16.8532194280      -21.8315824159       -7.2076263352  W2        2152            0.0000000000
      6457      2153  TIP3      OH2            15.7258894280      -22.8328724159       -3.9448563352  W2        2153            0.0000000000
      6458      2153  TIP3      H1             15.2387594280      -23.5684624159       -4.3161163352  W2        2153            0.0000000000
      6459      2153  TIP3      H2             16.2751594280      -23.2264824159       -3.2669163352  W2        2153            0.0000000000
      6460      2154  TIP3      OH2            14.1766194280      -27.0430624159        0.6931736648  W2        2154            0.0000000000
      6461      2154  TIP3      H1             13.3107294280      -27.1480924159        1.0874036648  W2        2154            0.0000000000
      6462      2154  TIP3      H2             14.5532094280      -26.2847324159        1.1396436648  W2        2154            0.0000000000
      6463      2155  TIP3      OH2            15.4775894280      -28.7866924159      -13.7925763352  W2        2155            0.0000000000
      6464      2155  TIP3      H1             16.3277294280      -28.3656024159      -13.6654163352  W2        2155            0.0000000000
      6465      2155  TIP3      H2             15.4830994280      -29.5266824159      -13.1854363352  W2        2155            0.0000000000
      6466      2156  TIP3      OH2            15.8721494280      -30.7329524159      -11.9690063352  W2        2156            0.0000000000
      6467      2156  TIP3      H1             15.1456094280      -31.2126924159      -11.5712463352  W2        2156            0.0000000000
      6468      2156  TIP3      H2             16.4534794280      -30.5274824159      -11.2368463352  W2        2156            0.0000000000
      6469      2157  TIP3      OH2            15.6312694280      -27.9482024159       -7.0212463352  W2        2157            0.0000000000
      6470      2157  TIP3      H1             16.4646894280      -28.3262024159       -7.3018863352  W2        2157            0.0000000000
      6471      2157  TIP3      H2             15.7432994280      -27.0050824159       -7.1403363352  W2        2157            0.0000000000
      6472      2158  TIP3      OH2            14.1174994280      -25.0704524159       -4.7144063352  W2        2158            0.0000000000
      6473      2158  TIP3      H1             13.4700294280      -24.7453024159       -4.0888863352  W2        2158            0.0000000000
      6474      2158  TIP3      H2             13.5998994280      -25.5106824159       -5.3885763352  W2        2158            0.0000000000
      6475      2159  TIP3      OH2            16.1404594280      -30.8321024159      -15.5778763352  W2        2159            0.0000000000
      6476      2159  TIP3      H1             15.6185694280      -30.4756924159      -16.2967863352  W2        2159            0.0000000000
      6477      2159  TIP3      H2             16.1073794280      -30.1573224159      -14.8997863352  W2        2159            0.0000000000
      6478      2160  TIP3      OH2            14.4893594280      -33.5925424159      -17.0271663352  W2        2160            0.0000000000
      6479      2160  TIP3      H1             14.5857994280      -32.9258424159      -17.7071963352  W2        2160            0.0000000000
      6480      2160  TIP3      H2             14.3493194280      -34.4079124159      -17.5086163352  W2        2160            0.0000000000
      6481      2161  TIP3      OH2            13.6588294280      -32.2123024159      -11.4061363352  W2        2161            0.0000000000
      6482      2161  TIP3      H1             13.5087094280      -33.1574424159      -11.4263563352  W2        2161            0.0000000000
      6483      2161  TIP3      H2             13.3052794280      -31.9311624159      -10.5622263352  W2        2161            0.0000000000
      6484      2162  TIP3      OH2            -1.3059305720      -30.1340824159       -7.3957563352  W2        2162            0.0000000000
      6485      2162  TIP3      H1             -1.1216405720      -30.2159124159       -8.3314663352  W2        2162            0.0000000000
      6486      2162  TIP3      H2             -0.4566405720      -30.2583824159       -6.9721163352  W2        2162            0.0000000000
      6487      2163  TIP3      OH2            14.5151194280      -30.2419724159       -1.7673063352  W2        2163            0.0000000000
      6488      2163  TIP3      H1             15.0978494280      -30.9767424159       -1.5755863352  W2        2163            0.0000000000
      6489      2163  TIP3      H2             15.0790494280      -29.4699424159       -1.7207263352  W2        2163            0.0000000000
      6490      2164  TIP3      OH2            16.0118294280      -32.3393924159       -1.0827663352  W2        2164            0.0000000000
      6491      2164  TIP3      H1             15.1484994280      -32.7181824159       -1.2482963352  W2        2164            0.0000000000
      6492      2164  TIP3      H2             16.6161994280      -33.0779124159       -1.1571863352  W2        2164            0.0000000000
      6493      2165  TIP3      OH2            13.7367394280      -36.1845624159      -17.9096163352  W2        2165            0.0000000000
      6494      2165  TIP3      H1             14.3473194280      -36.5558824159      -17.2727963352  W2        2165            0.0000000000
      6495      2165  TIP3      H2             12.8998894280      -36.6058724159      -17.7136163352  W2        2165            0.0000000000
      6496      2166  TIP3      OH2            13.3693094280      -34.6297224159      -12.9436263352  W2        2166            0.0000000000
      6497      2166  TIP3      H1             13.6490194280      -35.5366824159      -12.8194563352  W2        2166            0.0000000000
      6498      2166  TIP3      H2             14.1284794280      -34.1955724159      -13.3327063352  W2        2166            0.0000000000
      6499      2167  TIP3      OH2            13.9811394280      -34.0479824159       -7.5077363352  W2        2167            0.0000000000
      6500      2167  TIP3      H1             14.9139394280      -33.8359924159       -7.5421363352  W2        2167            0.0000000000
      6501      2167  TIP3      H2             13.7458894280      -33.9467724159       -6.5854363352  W2        2167            0.0000000000
      6502      2168  TIP3      OH2            14.0103294280      -33.3114524159       -4.7317963352  W2        2168            0.0000000000
      6503      2168  TIP3      H1             13.1674594280      -33.0434124159       -4.3658163352  W2        2168            0.0000000000
      6504      2168  TIP3      H2             14.4527594280      -32.4892624159       -4.9426863352  W2        2168            0.0000000000
      6505      2169  TIP3      OH2            -1.7084505720      -34.8635824159       -1.2548763352  W2        2169            0.0000000000
      6506      2169  TIP3      H1             -0.7889605720      -34.9857524159       -1.0185663352  W2        2169            0.0000000000
      6507      2169  TIP3      H2             -2.1580005720      -35.6136124159       -0.8655263352  W2        2169            0.0000000000
      6508      2170  TIP3      OH2            16.2934894280      -39.3314324159        0.6217036648  W2        2170            0.0000000000
      6509      2170  TIP3      H1             16.6431894280      -39.9850824159        0.0161736648  W2        2170            0.0000000000
      6510      2170  TIP3      H2             16.4404394280      -38.4940224159        0.1819636648  W2        2170            0.0000000000
      6511      2171  TIP3      OH2            13.9827894280      -37.3667924159      -12.8954263352  W2        2171            0.0000000000
      6512      2171  TIP3      H1             14.1652894280      -37.8156424159      -12.0699263352  W2        2171            0.0000000000
      6513      2171  TIP3      H2             13.3830794280      -37.9513524159      -13.3589663352  W2        2171            0.0000000000
      6514      2172  TIP3      OH2            -0.4872005720      -36.5514224159       -8.3635863352  W2        2172            0.0000000000
      6515      2172  TIP3      H1             -0.0420405720      -37.3431724159       -8.0616163352  W2        2172            0.0000000000
      6516      2172  TIP3      H2             -0.0209005720      -35.8349024159       -7.9330263352  W2        2172            0.0000000000
      6517      2173  TIP3      OH2            -2.1831705720      -33.5521224159       -7.2945663352  W2        2173            0.0000000000
      6518      2173  TIP3      H1             -1.6911905720      -33.7730724159       -8.0853663352  W2        2173            0.0000000000
      6519      2173  TIP3      H2             -1.8210805720      -32.7117824159       -7.0136163352  W2        2173            0.0000000000
      6520      2174  TIP3      OH2            15.8132094280      -37.2219724159       -1.0291663352  W2        2174            0.0000000000
      6521      2174  TIP3      H1             14.8957794280      -36.9512624159       -1.0648163352  W2        2174            0.0000000000
      6522      2174  TIP3      H2             15.9361494280      -37.7571324159       -1.8131963352  W2        2174            0.0000000000
      6523      2175  TIP3      OH2            15.8494094280      -37.2989824159      -16.3673963352  W2        2175            0.0000000000
      6524      2175  TIP3      H1             16.2616694280      -38.0204124159      -16.8425963352  W2        2175            0.0000000000
      6525      2175  TIP3      H2             16.5310594280      -36.6295224159      -16.3089663352  W2        2175            0.0000000000
      6526      2176  TIP3      OH2            -1.8695205720      -37.2942124159      -13.2403263352  W2        2176            0.0000000000
      6527      2176  TIP3      H1             -2.7946805720      -37.0855524159      -13.3697763352  W2        2176            0.0000000000
      6528      2176  TIP3      H2             -1.4155305720      -36.8101324159      -13.9300963352  W2        2176            0.0000000000
      6529      2177  TIP3      OH2            12.9011994280      -22.3100424159      -11.2945863352  W2        2177            0.0000000000
      6530      2177  TIP3      H1             13.5534894280      -22.6578324159      -11.9026763352  W2        2177            0.0000000000
      6531      2177  TIP3      H2             13.4115794280      -21.8217224159      -10.6486163352  W2        2177            0.0000000000
      6532      2178  TIP3      OH2            -1.9059805720      -38.5563124159       -4.8960763352  W2        2178            0.0000000000
      6533      2178  TIP3      H1             -2.5709305720      -38.8022824159       -4.2529863352  W2        2178            0.0000000000
      6534      2178  TIP3      H2             -2.3488505720      -37.9342724159       -5.4732763352  W2        2178            0.0000000000
      6535      2179  TIP3      OH2             0.2859494280      -25.3809024159       -0.7514963352  W2        2179            0.0000000000
      6536      2179  TIP3      H1             -0.5348005720      -25.2062524159       -1.2120263352  W2        2179            0.0000000000
      6537      2179  TIP3      H2              0.0337294280      -25.4544324159        0.1689436648  W2        2179            0.0000000000
      6538      2180  TIP3      OH2             3.2402394280      -24.4067824159       -4.4930963352  W2        2180            0.0000000000
      6539      2180  TIP3      H1              2.8153494280      -23.5969324159       -4.7756363352  W2        2180            0.0000000000
      6540      2180  TIP3      H2              4.1445194280      -24.3213724159       -4.7951163352  W2        2180            0.0000000000
      6541      2181  TIP3      OH2             7.5513794280      -23.0077824159       -1.5337263352  W2        2181            0.0000000000
      6542      2181  TIP3      H1              7.7361294280      -23.3411724159       -0.6556963352  W2        2181            0.0000000000
      6543      2181  TIP3      H2              8.3978294280      -22.6979224159       -1.8558063352  W2        2181            0.0000000000
      6544      2182  TIP3      OH2             9.8964194280      -21.7218924159       -2.2895863352  W2        2182            0.0000000000
      6545      2182  TIP3      H1             10.5733094280      -22.3546624159       -2.5296663352  W2        2182            0.0000000000
      6546      2182  TIP3      H2             10.2182994280      -21.3208424159       -1.4822563352  W2        2182            0.0000000000
      6547      2183  TIP3      OH2            14.8137994280      -39.1323424159       -3.2100863352  W2        2183            0.0000000000
      6548      2183  TIP3      H1             14.0011494280      -38.8073124159       -3.5976163352  W2        2183            0.0000000000
      6549      2183  TIP3      H2             15.0466494280      -39.8924924159       -3.7431763352  W2        2183            0.0000000000
      6550      2184  TIP3      OH2             0.6419094280      -21.1503924159       -4.4455663352  W2        2184            0.0000000000
      6551      2184  TIP3      H1             -0.0784505720      -20.7102924159       -4.8967963352  W2        2184            0.0000000000
      6552      2184  TIP3      H2              0.2763094280      -21.4009224159       -3.5971663352  W2        2184            0.0000000000
      6553      2185  TIP3      OH2             3.1091694280      -21.5500024159       -5.4158463352  W2        2185            0.0000000000
      6554      2185  TIP3      H1              2.2443894280      -21.4781524159       -5.0118363352  W2        2185            0.0000000000
      6555      2185  TIP3      H2              3.0540694280      -21.0032724159       -6.1995963352  W2        2185            0.0000000000
      6556      2186  TIP3      OH2             7.8197294280      -21.6621124159       -6.2402463352  W2        2186            0.0000000000
      6557      2186  TIP3      H1              7.3631294280      -21.1331424159       -6.8944063352  W2        2186            0.0000000000
      6558      2186  TIP3      H2              7.9825294280      -21.0589724159       -5.5150163352  W2        2186            0.0000000000
      6559      2187  TIP3      OH2            10.1473594280      -22.7841524159       -5.2952163352  W2        2187            0.0000000000
      6560      2187  TIP3      H1              9.2427294280      -22.6191324159       -5.5610063352  W2        2187            0.0000000000
      6561      2187  TIP3      H2             10.5762194280      -21.9309324159       -5.3608763352  W2        2187            0.0000000000
      6562      2188  TIP3      OH2            12.7515494280      -21.2142424159       -5.0004363352  W2        2188            0.0000000000
      6563      2188  TIP3      H1             12.5697494280      -20.2983524159       -5.2109463352  W2        2188            0.0000000000
      6564      2188  TIP3      H2             12.9283294280      -21.6245324159       -5.8469763352  W2        2188            0.0000000000
      6565      2189  TIP3      OH2             0.0567194280      -22.5271424159       -7.5353863352  W2        2189            0.0000000000
      6566      2189  TIP3      H1              0.0383194280      -22.9526324159       -6.6781563352  W2        2189            0.0000000000
      6567      2189  TIP3      H2              0.8615094280      -22.8456424159       -7.9441663352  W2        2189            0.0000000000
      6568      2190  TIP3      OH2             2.1980294280      -23.8172724159       -8.8803963352  W2        2190            0.0000000000
      6569      2190  TIP3      H1              1.9790994280      -24.7335324159       -8.7107963352  W2        2190            0.0000000000
      6570      2190  TIP3      H2              3.0222494280      -23.6772324159       -8.4142563352  W2        2190            0.0000000000
      6571      2191  TIP3      OH2             4.7352794280      -23.3473424159       -8.0315963352  W2        2191            0.0000000000
      6572      2191  TIP3      H1              4.9478494280      -24.2354424159       -8.3185063352  W2        2191            0.0000000000
      6573      2191  TIP3      H2              4.7997894280      -23.3815724159       -7.0771963352  W2        2191            0.0000000000
      6574      2192  TIP3      OH2             8.2436494280      -37.6832824159       -8.8872663352  W2        2192            0.0000000000
      6575      2192  TIP3      H1              7.5693294280      -38.3127224159       -8.6316863352  W2        2192            0.0000000000
      6576      2192  TIP3      H2              8.8075694280      -38.1673924159       -9.4904763352  W2        2192            0.0000000000
      6577      2193  TIP3      OH2            13.3863694280      -39.5758824159       -8.7745563352  W2        2193            0.0000000000
      6578      2193  TIP3      H1             13.9901294280      -39.0283424159       -9.2764563352  W2        2193            0.0000000000
      6579      2193  TIP3      H2             12.5165694280      -39.2568424159       -9.0151463352  W2        2193            0.0000000000
      6580      2194  TIP3      OH2            15.1134094280      -38.4370124159      -10.4414663352  W2        2194            0.0000000000
      6581      2194  TIP3      H1             15.7251594280      -38.9514424159      -10.9681063352  W2        2194            0.0000000000
      6582      2194  TIP3      H2             15.4957494280      -37.5598024159      -10.4180263352  W2        2194            0.0000000000
      6583      2195  TIP3      OH2             0.5703994280      -39.0492524159      -11.0652763352  W2        2195            0.0000000000
      6584      2195  TIP3      H1             -0.2066205720      -39.2837624159      -11.5726863352  W2        2195            0.0000000000
      6585      2195  TIP3      H2              1.1007594280      -39.8460424159      -11.0564763352  W2        2195            0.0000000000
      6586      2196  TIP3      OH2            -0.5932605720      -39.2514424159      -15.2616663352  W2        2196            0.0000000000
      6587      2196  TIP3      H1             -0.1541905720      -38.6403924159      -15.8533163352  W2        2196            0.0000000000
      6588      2196  TIP3      H2             -1.2270205720      -38.7130324159      -14.7876663352  W2        2196            0.0000000000
      6589      2197  TIP3      OH2             5.1496594280      -39.1225424159      -11.2519663352  W2        2197            0.0000000000
      6590      2197  TIP3      H1              6.0239994280      -38.7341124159      -11.2815363352  W2        2197            0.0000000000
      6591      2197  TIP3      H2              5.0137394280      -39.3377624159      -10.3292463352  W2        2197            0.0000000000
      6592      2198  TIP3      OH2            10.7064994280      -39.0925624159       -9.6027963352  W2        2198            0.0000000000
      6593      2198  TIP3      H1             10.7826594280      -38.9974024159      -10.5521963352  W2        2198            0.0000000000
      6594      2198  TIP3      H2             10.4314194280      -40.0002724159       -9.4738863352  W2        2198            0.0000000000
      6595      2199  TIP3      OH2            12.0597594280      -39.0667824159      -13.9102963352  W2        2199            0.0000000000
      6596      2199  TIP3      H1             11.3568694280      -38.4518624159      -14.1201563352  W2        2199            0.0000000000
      6597      2199  TIP3      H2             11.6148994280      -39.9041124159      -13.7792063352  W2        2199            0.0000000000
      6598      2200  TIP3      OH2            -0.6923105720      -23.3032224159      -14.3641563352  W2        2200            0.0000000000
      6599      2200  TIP3      H1             -1.3773205720      -23.3413324159      -15.0316463352  W2        2200            0.0000000000
      6600      2200  TIP3      H2             -0.6885905720      -22.3904624159      -14.0759463352  W2        2200            0.0000000000
      6601      2201  TIP3      OH2             1.2676494280      -37.3352924159      -16.8192563352  W2        2201            0.0000000000
      6602      2201  TIP3      H1              1.7589894280      -37.9650524159      -17.3467063352  W2        2201            0.0000000000
      6603      2201  TIP3      H2              1.8912794280      -37.0393524159      -16.1561363352  W2        2201            0.0000000000
      6604      2202  TIP3      OH2             6.2936594280      -37.0421424159      -14.3622063352  W2        2202            0.0000000000
      6605      2202  TIP3      H1              6.4717894280      -37.6888224159      -13.6793463352  W2        2202            0.0000000000
      6606      2202  TIP3      H2              6.2402794280      -36.2083724159      -13.8950963352  W2        2202            0.0000000000
      6607      2203  TIP3      OH2             8.1720394280      -22.0937324159      -15.9665363352  W2        2203            0.0000000000
      6608      2203  TIP3      H1              9.0380594280      -21.7269924159      -16.1447163352  W2        2203            0.0000000000
      6609      2203  TIP3      H2              7.9253194280      -22.5329324159      -16.7804563352  W2        2203            0.0000000000
      6610      2204  TIP3      OH2            14.8809994280      -22.5307024159      -13.2874263352  W2        2204            0.0000000000
      6611      2204  TIP3      H1             14.6867094280      -23.2784924159      -13.8524663352  W2        2204            0.0000000000
      6612      2204  TIP3      H2             14.8420094280      -21.7726924159      -13.8706363352  W2        2204            0.0000000000
      6613      2205  TIP3      OH2             0.5281994280      -38.5350624159       -1.5476563352  W2        2205            0.0000000000
      6614      2205  TIP3      H1              0.1620194280      -39.3008024159       -1.1051863352  W2        2205            0.0000000000
      6615      2205  TIP3      H2              1.4410494280      -38.5060424159       -1.2611463352  W2        2205            0.0000000000
      6616      2206  TIP3      OH2             2.5012794280      -39.1846224159       -0.0119463352  W2        2206            0.0000000000
      6617      2206  TIP3      H1              3.3996394280      -39.4586024159       -0.1966063352  W2        2206            0.0000000000
      6618      2206  TIP3      H2              2.1145894280      -39.9270224159        0.4523136648  W2        2206            0.0000000000
      6619      2207  TIP3      OH2             1.1258094280      -22.3831424159      -17.3389463352  W2        2207            0.0000000000
      6620      2207  TIP3      H1              0.8582694280      -22.0968524159      -16.4656363352  W2        2207            0.0000000000
      6621      2207  TIP3      H2              1.8970694280      -22.9292224159      -17.1866963352  W2        2207            0.0000000000
      6622      2208  TIP3      OH2            10.9225094280      -39.8520924159        0.1703336648  W2        2208            0.0000000000
      6623      2208  TIP3      H1             10.9992294280      -40.2780224159        1.0241036648  W2        2208            0.0000000000
      6624      2208  TIP3      H2             11.8161694280      -39.8386224159       -0.1723163352  W2        2208            0.0000000000
      6625      2209  TIP3      OH2            14.0986194280      -23.7794624159       -1.1372463352  W2        2209            0.0000000000
      6626      2209  TIP3      H1             13.3168094280      -23.9656624159       -1.6571863352  W2        2209            0.0000000000
      6627      2209  TIP3      H2             14.0266094280      -22.8500324159       -0.9199963352  W2        2209            0.0000000000
      6628      2210  TIP3      OH2            28.5046594280      -29.8930224159      -11.1065263352  W2        2210            0.0000000000
      6629      2210  TIP3      H1             28.5937694280      -28.9492024159      -11.2388163352  W2        2210            0.0000000000
      6630      2210  TIP3      H2             27.8664194280      -30.1683824159      -11.7645863352  W2        2210            0.0000000000
      6631      2211  TIP3      OH2            27.4377894280      -30.6379524159       -7.6877063352  W2        2211            0.0000000000
      6632      2211  TIP3      H1             27.3995394280      -31.2843224159       -6.9827463352  W2        2211            0.0000000000
      6633      2211  TIP3      H2             27.1154394280      -31.1045124159       -8.4588363352  W2        2211            0.0000000000
      6634      2212  TIP3      OH2            19.8062894280      -31.0237424159       -6.0947163352  W2        2212            0.0000000000
      6635      2212  TIP3      H1             19.8474994280      -31.6494124159       -5.3714763352  W2        2212            0.0000000000
      6636      2212  TIP3      H2             20.5090594280      -30.3998824159       -5.9126763352  W2        2212            0.0000000000
      6637      2213  TIP3      OH2            31.1438094280      -27.6989124159       -9.3861963352  W2        2213            0.0000000000
      6638      2213  TIP3      H1             30.7030794280      -28.4193124159       -8.9356363352  W2        2213            0.0000000000
      6639      2213  TIP3      H2             31.1307794280      -26.9781924159       -8.7564263352  W2        2213            0.0000000000
      6640      2214  TIP3      OH2            20.7295994280      -26.5738524159       -7.5598063352  W2        2214            0.0000000000
      6641      2214  TIP3      H1             20.3601194280      -27.3758024159       -7.9293763352  W2        2214            0.0000000000
      6642      2214  TIP3      H2             21.6707094280      -26.7423624159       -7.5134663352  W2        2214            0.0000000000
      6643      2215  TIP3      OH2            17.3396494280      -32.9135924159      -12.1669263352  W2        2215            0.0000000000
      6644      2215  TIP3      H1             16.8919894280      -32.0677224159      -12.1852763352  W2        2215            0.0000000000
      6645      2215  TIP3      H2             16.7787694280      -33.4931724159      -12.6824163352  W2        2215            0.0000000000
      6646      2216  TIP3      OH2            18.0502594280      -30.7516324159      -10.0411263352  W2        2216            0.0000000000
      6647      2216  TIP3      H1             18.2636094280      -31.5214724159       -9.5138263352  W2        2216            0.0000000000
      6648      2216  TIP3      H2             18.7880194280      -30.6619624159      -10.6443663352  W2        2216            0.0000000000
      6649      2217  TIP3      OH2            28.2553594280      -22.5947424159       -9.1741563352  W2        2217            0.0000000000
      6650      2217  TIP3      H1             28.8749994280      -23.2712724159       -9.4472363352  W2        2217            0.0000000000
      6651      2217  TIP3      H2             28.0470994280      -22.8126624159       -8.2656663352  W2        2217            0.0000000000
      6652      2218  TIP3      OH2            25.8272294280      -28.2058124159       -7.2816063352  W2        2218            0.0000000000
      6653      2218  TIP3      H1             26.1310194280      -28.8916724159       -7.8761963352  W2        2218            0.0000000000
      6654      2218  TIP3      H2             26.5486294280      -28.0869424159       -6.6638063352  W2        2218            0.0000000000
      6655      2219  TIP3      OH2            34.4902094280      -36.6042824159       -6.4209863352  W2        2219            0.0000000000
      6656      2219  TIP3      H1             34.5394294280      -35.9941624159       -5.6850763352  W2        2219            0.0000000000
      6657      2219  TIP3      H2             34.9157194280      -36.1431924159       -7.1438763352  W2        2219            0.0000000000
      6658      2220  TIP3      OH2            28.9679294280      -33.8115724159       -6.9541263352  W2        2220            0.0000000000
      6659      2220  TIP3      H1             29.1105194280      -34.7578724159       -6.9339663352  W2        2220            0.0000000000
      6660      2220  TIP3      H2             28.8618294280      -33.6045924159       -7.8826363352  W2        2220            0.0000000000
      6661      2221  TIP3      OH2            22.1227594280      -35.7099324159       -9.6816463352  W2        2221            0.0000000000
      6662      2221  TIP3      H1             22.1658694280      -34.8500824159      -10.1000163352  W2        2221            0.0000000000
      6663      2221  TIP3      H2             21.6651694280      -36.2624624159      -10.3153263352  W2        2221            0.0000000000
      6664      2222  TIP3      OH2            29.8450294280      -35.5793724159      -11.2808163352  W2        2222            0.0000000000
      6665      2222  TIP3      H1             30.4914594280      -35.9080524159      -10.6560563352  W2        2222            0.0000000000
      6666      2222  TIP3      H2             30.3549694280      -35.0614724159      -11.9036763352  W2        2222            0.0000000000
      6667      2223  TIP3      OH2            18.7429094280      -33.3133524159       -8.9195063352  W2        2223            0.0000000000
      6668      2223  TIP3      H1             19.3965694280      -33.8631824159       -8.4874963352  W2        2223            0.0000000000
      6669      2223  TIP3      H2             18.7668394280      -33.5874524159       -9.8363063352  W2        2223            0.0000000000
      6670      2224  TIP3      OH2            23.8993594280      -31.7632224159       -9.7043563352  W2        2224            0.0000000000
      6671      2224  TIP3      H1             24.5154594280      -32.2896824159       -9.1949563352  W2        2224            0.0000000000
      6672      2224  TIP3      H2             23.3132394280      -32.4033524159      -10.1079963352  W2        2224            0.0000000000
      6673      2225  TIP3      OH2            34.8816694280      -35.1263624159       -4.1850063352  W2        2225            0.0000000000
      6674      2225  TIP3      H1             34.1931294280      -34.4682924159       -4.2803463352  W2        2225            0.0000000000
      6675      2225  TIP3      H2             34.8971294280      -35.3235724159       -3.2484663352  W2        2225            0.0000000000
      6676      2226  TIP3      OH2            20.9329494280      -36.7920924159       -5.6075663352  W2        2226            0.0000000000
      6677      2226  TIP3      H1             20.7141194280      -36.2620324159       -6.3739663352  W2        2226            0.0000000000
      6678      2226  TIP3      H2             20.2650394280      -36.5655424159       -4.9604263352  W2        2226            0.0000000000
      6679      2227  TIP3      OH2            28.3019294280      -27.2919824159      -12.0636563352  W2        2227            0.0000000000
      6680      2227  TIP3      H1             28.0064394280      -27.6147524159      -12.9149663352  W2        2227            0.0000000000
      6681      2227  TIP3      H2             27.9777094280      -26.3923124159      -12.0223963352  W2        2227            0.0000000000
      6682      2228  TIP3      OH2            23.5020894280      -29.1165224159       -5.3201963352  W2        2228            0.0000000000
      6683      2228  TIP3      H1             22.7619994280      -28.5183724159       -5.2166763352  W2        2228            0.0000000000
      6684      2228  TIP3      H2             24.2160394280      -28.5625624159       -5.6358363352  W2        2228            0.0000000000
      6685      2229  TIP3      OH2            31.6088694280      -36.2884424159       -9.3002263352  W2        2229            0.0000000000
      6686      2229  TIP3      H1             31.3936694280      -37.0541024159       -8.7676263352  W2        2229            0.0000000000
      6687      2229  TIP3      H2             32.2646094280      -35.8159824159       -8.7873763352  W2        2229            0.0000000000
      6688      2230  TIP3      OH2            20.5266794280      -34.8999124159       -7.6553463352  W2        2230            0.0000000000
      6689      2230  TIP3      H1             21.1403094280      -34.2671524159       -7.2821063352  W2        2230            0.0000000000
      6690      2230  TIP3      H2             21.0387494280      -35.3724124159       -8.3116563352  W2        2230            0.0000000000
      6691      2231  TIP3      OH2            21.9095194280      -27.1522224159       -4.5330463352  W2        2231            0.0000000000
      6692      2231  TIP3      H1             21.9042794280      -26.2728724159       -4.9111163352  W2        2231            0.0000000000
      6693      2231  TIP3      H2             21.0559294280      -27.2358124159       -4.1080563352  W2        2231            0.0000000000
      6694      2232  TIP3      OH2            18.0306094280      -27.4814324159      -13.7511163352  W2        2232            0.0000000000
      6695      2232  TIP3      H1             17.7586994280      -27.2523324159      -14.6398263352  W2        2232            0.0000000000
      6696      2232  TIP3      H2             18.0761794280      -26.6435524159      -13.2905863352  W2        2232            0.0000000000
      6697      2233  TIP3      OH2            31.6555794280      -25.8598424159       -7.0382663352  W2        2233            0.0000000000
      6698      2233  TIP3      H1             30.7139494280      -25.8014524159       -6.8765763352  W2        2233            0.0000000000
      6699      2233  TIP3      H2             31.9321894280      -24.9537924159       -7.1752963352  W2        2233            0.0000000000
      6700      2234  TIP3      OH2            31.9562794280      -37.5733124159       -5.6208763352  W2        2234            0.0000000000
      6701      2234  TIP3      H1             31.2201994280      -36.9626024159       -5.6587463352  W2        2234            0.0000000000
      6702      2234  TIP3      H2             32.6396794280      -37.1584124159       -6.1472363352  W2        2234            0.0000000000
      6703      2235  TIP3      OH2            24.9594194280      -39.4865824159       -8.1550763352  W2        2235            0.0000000000
      6704      2235  TIP3      H1             24.8418394280      -40.4349824159       -8.2092463352  W2        2235            0.0000000000
      6705      2235  TIP3      H2             24.1044294280      -39.1539724159       -7.8819663352  W2        2235            0.0000000000
      6706      2236  TIP3      OH2            29.9076994280      -24.0784924159      -10.4131063352  W2        2236            0.0000000000
      6707      2236  TIP3      H1             30.3329294280      -24.7857024159      -10.8981463352  W2        2236            0.0000000000
      6708      2236  TIP3      H2             30.2246994280      -23.2772224159      -10.8298863352  W2        2236            0.0000000000
      6709      2237  TIP3      OH2            31.0673494280      -26.1776424159      -11.9044463352  W2        2237            0.0000000000
      6710      2237  TIP3      H1             30.8098294280      -26.8676324159      -12.5158563352  W2        2237            0.0000000000
      6711      2237  TIP3      H2             31.1384294280      -26.6205224159      -11.0588563352  W2        2237            0.0000000000
      6712      2238  TIP3      OH2            32.7533694280      -27.6109724159       -3.4270963352  W2        2238            0.0000000000
      6713      2238  TIP3      H1             32.8929994280      -28.2027224159       -4.1663963352  W2        2238            0.0000000000
      6714      2238  TIP3      H2             32.9206494280      -26.7383824159       -3.7832163352  W2        2238            0.0000000000
      6715      2239  TIP3      OH2            27.2259094280      -30.6490224159      -13.6544963352  W2        2239            0.0000000000
      6716      2239  TIP3      H1             26.5144594280      -30.1140524159      -14.0064463352  W2        2239            0.0000000000
      6717      2239  TIP3      H2             27.9168694280      -30.5938124159      -14.3146063352  W2        2239            0.0000000000
      6718      2240  TIP3      OH2            27.2798294280      -32.1915924159      -16.6159963352  W2        2240            0.0000000000
      6719      2240  TIP3      H1             27.9808194280      -32.1689024159      -15.9645963352  W2        2240            0.0000000000
      6720      2240  TIP3      H2             27.5821194280      -32.8196224159      -17.2720663352  W2        2240            0.0000000000
      6721      2241  TIP3      OH2            34.5952994280      -31.2711724159       -5.3610563352  W2        2241            0.0000000000
      6722      2241  TIP3      H1             33.9427094280      -30.5766124159       -5.2719663352  W2        2241            0.0000000000
      6723      2241  TIP3      H2             35.0603294280      -31.0610824159       -6.1708963352  W2        2241            0.0000000000
      6724      2242  TIP3      OH2            30.6316794280      -30.4396924159      -12.7029063352  W2        2242            0.0000000000
      6725      2242  TIP3      H1             29.8997794280      -30.2113224159      -12.1298463352  W2        2242            0.0000000000
      6726      2242  TIP3      H2             31.0788994280      -31.1534224159      -12.2481563352  W2        2242            0.0000000000
      6727      2243  TIP3      OH2            30.5290294280      -32.2654324159       -3.6352063352  W2        2243            0.0000000000
      6728      2243  TIP3      H1             30.6089394280      -31.5019924159       -3.0633563352  W2        2243            0.0000000000
      6729      2243  TIP3      H2             29.9277994280      -31.9861924159       -4.3256963352  W2        2243            0.0000000000
      6730      2244  TIP3      OH2            22.2770494280      -29.8090724159      -10.8204063352  W2        2244            0.0000000000
      6731      2244  TIP3      H1             21.9465694280      -30.1797324159      -11.6387063352  W2        2244            0.0000000000
      6732      2244  TIP3      H2             22.8654594280      -30.4796724159      -10.4735763352  W2        2244            0.0000000000
      6733      2245  TIP3      OH2            23.6437994280      -26.3810124159       -8.1391863352  W2        2245            0.0000000000
      6734      2245  TIP3      H1             23.5489294280      -26.9597024159       -8.8957263352  W2        2245            0.0000000000
      6735      2245  TIP3      H2             24.3731594280      -26.7524424159       -7.6429063352  W2        2245            0.0000000000
      6736      2246  TIP3      OH2            22.6435994280      -31.0405124159       -7.1869063352  W2        2246            0.0000000000
      6737      2246  TIP3      H1             23.2088494280      -30.9190924159       -7.9497863352  W2        2246            0.0000000000
      6738      2246  TIP3      H2             22.9624894280      -30.4030124159       -6.5480563352  W2        2246            0.0000000000
      6739      2247  TIP3      OH2            28.9528194280      -25.5373224159       -6.4528563352  W2        2247            0.0000000000
      6740      2247  TIP3      H1             28.7124794280      -24.8750124159       -5.8049363352  W2        2247            0.0000000000
      6741      2247  TIP3      H2             28.7546394280      -26.3718024159       -6.0278963352  W2        2247            0.0000000000
      6742      2248  TIP3      OH2            23.5236694280      -26.6412424159       -2.4697163352  W2        2248            0.0000000000
      6743      2248  TIP3      H1             23.2124194280      -25.8589224159       -2.0143963352  W2        2248            0.0000000000
      6744      2248  TIP3      H2             22.8736894280      -26.7943324159       -3.1555163352  W2        2248            0.0000000000
      6745      2249  TIP3      OH2            29.5026294280      -31.2774024159      -15.0177863352  W2        2249            0.0000000000
      6746      2249  TIP3      H1             30.0821794280      -31.1273724159      -14.2708963352  W2        2249            0.0000000000
      6747      2249  TIP3      H2             29.9166294280      -30.8066624159      -15.7411463352  W2        2249            0.0000000000
      6748      2250  TIP3      OH2            20.4436594280      -30.4431324159       -3.2411463352  W2        2250            0.0000000000
      6749      2250  TIP3      H1             20.5139794280      -29.7924524159       -2.5426463352  W2        2250            0.0000000000
      6750      2250  TIP3      H2             19.5528794280      -30.3403824159       -3.5760563352  W2        2250            0.0000000000
      6751      2251  TIP3      OH2            27.2291194280      -24.5405524159      -11.5824763352  W2        2251            0.0000000000
      6752      2251  TIP3      H1             27.7028794280      -24.2449224159      -10.8050563352  W2        2251            0.0000000000
      6753      2251  TIP3      H2             26.6660494280      -23.8023924159      -11.8155163352  W2        2251            0.0000000000
      6754      2252  TIP3      OH2            21.7632594280      -24.5697424159       -1.7063363352  W2        2252            0.0000000000
      6755      2252  TIP3      H1             21.7707894280      -24.7057724159       -2.6537863352  W2        2252            0.0000000000
      6756      2252  TIP3      H2             20.8472994280      -24.6869324159       -1.4543363352  W2        2252            0.0000000000
      6757      2253  TIP3      OH2            33.2014694280      -39.5273624159      -15.2048163352  W2        2253            0.0000000000
      6758      2253  TIP3      H1             32.3015394280      -39.3884624159      -14.9097563352  W2        2253            0.0000000000
      6759      2253  TIP3      H2             33.4533094280      -38.6959024159      -15.6066463352  W2        2253            0.0000000000
      6760      2254  TIP3      OH2            21.2673194280      -30.7396424159      -13.2311263352  W2        2254            0.0000000000
      6761      2254  TIP3      H1             20.9754494280      -29.9714724159      -13.7219963352  W2        2254            0.0000000000
      6762      2254  TIP3      H2             20.5928394280      -31.3990224159      -13.3939863352  W2        2254            0.0000000000
      6763      2255  TIP3      OH2            34.3906094280      -25.1611224159      -16.8284263352  W2        2255            0.0000000000
      6764      2255  TIP3      H1             34.4639594280      -24.2221024159      -16.6578963352  W2        2255            0.0000000000
      6765      2255  TIP3      H2             35.2961194280      -25.4662624159      -16.8846963352  W2        2255            0.0000000000
      6766      2256  TIP3      OH2            17.3603294280      -28.3767224159       -4.4161463352  W2        2256            0.0000000000
      6767      2256  TIP3      H1             16.8591694280      -28.4047824159       -5.2311763352  W2        2256            0.0000000000
      6768      2256  TIP3      H2             17.3656994280      -29.2824024159       -4.1064163352  W2        2256            0.0000000000
      6769      2257  TIP3      OH2            17.1105994280      -25.5963424159       -7.5321263352  W2        2257            0.0000000000
      6770      2257  TIP3      H1             18.0566594280      -25.7406424159       -7.5511763352  W2        2257            0.0000000000
      6771      2257  TIP3      H2             16.9982294280      -24.8120624159       -6.9950063352  W2        2257            0.0000000000
      6772      2258  TIP3      OH2            35.3084494280      -24.9303724159       -1.8497563352  W2        2258            0.0000000000
      6773      2258  TIP3      H1             35.2591294280      -25.8855624159       -1.8869963352  W2        2258            0.0000000000
      6774      2258  TIP3      H2             34.4816794280      -24.6628424159       -1.4483763352  W2        2258            0.0000000000
      6775      2259  TIP3      OH2            26.2868494280      -25.3564524159       -2.9736163352  W2        2259            0.0000000000
      6776      2259  TIP3      H1             26.3743094280      -24.5299924159       -2.4987063352  W2        2259            0.0000000000
      6777      2259  TIP3      H2             25.4233594280      -25.6860724159       -2.7246863352  W2        2259            0.0000000000
      6778      2260  TIP3      OH2            26.7014294280      -21.5840824159      -13.1675563352  W2        2260            0.0000000000
      6779      2260  TIP3      H1             26.6260294280      -21.7053624159      -14.1140363352  W2        2260            0.0000000000
      6780      2260  TIP3      H2             26.7342994280      -20.6348124159      -13.0490963352  W2        2260            0.0000000000
      6781      2261  TIP3      OH2            20.3548094280      -22.7953824159      -11.3866563352  W2        2261            0.0000000000
      6782      2261  TIP3      H1             20.5068494280      -23.1433424159      -10.5080063352  W2        2261            0.0000000000
      6783      2261  TIP3      H2             19.5038494280      -23.1516524159      -11.6419363352  W2        2261            0.0000000000
      6784      2262  TIP3      OH2            29.8030294280      -22.4300624159      -16.1653163352  W2        2262            0.0000000000
      6785      2262  TIP3      H1             30.1778694280      -23.1744524159      -16.6360563352  W2        2262            0.0000000000
      6786      2262  TIP3      H2             29.8073994280      -22.7000024159      -15.2469863352  W2        2262            0.0000000000
      6787      2263  TIP3      OH2            29.4718394280      -22.5043524159      -13.4160963352  W2        2263            0.0000000000
      6788      2263  TIP3      H1             28.5368194280      -22.4041624159      -13.2373963352  W2        2263            0.0000000000
      6789      2263  TIP3      H2             29.7520294280      -23.2137524159      -12.8377763352  W2        2263            0.0000000000
      6790      2264  TIP3      OH2            32.4604294280      -33.4371224159       -1.3695363352  W2        2264            0.0000000000
      6791      2264  TIP3      H1             32.0531094280      -32.9565624159       -2.0902063352  W2        2264            0.0000000000
      6792      2264  TIP3      H2             32.5009994280      -34.3425224159       -1.6774563352  W2        2264            0.0000000000
      6793      2265  TIP3      OH2            19.6093794280      -27.0531824159       -3.3728663352  W2        2265            0.0000000000
      6794      2265  TIP3      H1             19.8255094280      -27.4146224159       -2.5132863352  W2        2265            0.0000000000
      6795      2265  TIP3      H2             18.7538494280      -27.4278024159       -3.5825163352  W2        2265            0.0000000000
      6796      2266  TIP3      OH2            22.2281794280      -38.5831324159       -7.3774463352  W2        2266            0.0000000000
      6797      2266  TIP3      H1             21.3665494280      -38.6703124159       -7.7851563352  W2        2266            0.0000000000
      6798      2266  TIP3      H2             22.2057494280      -37.7271224159       -6.9496863352  W2        2266            0.0000000000
      6799      2267  TIP3      OH2            26.8909594280      -38.8610924159       -4.0027463352  W2        2267            0.0000000000
      6800      2267  TIP3      H1             27.3112694280      -39.2763824159       -3.2496863352  W2        2267            0.0000000000
      6801      2267  TIP3      H2             25.9579194280      -39.0397624159       -3.8855463352  W2        2267            0.0000000000
      6802      2268  TIP3      OH2            30.2174494280      -35.1055724159       -3.1492963352  W2        2268            0.0000000000
      6803      2268  TIP3      H1             29.7033994280      -35.2313524159       -2.3516963352  W2        2268            0.0000000000
      6804      2268  TIP3      H2             30.0619194280      -34.1932624159       -3.3936763352  W2        2268            0.0000000000
      6805      2269  TIP3      OH2            30.9799394280      -30.2445724159      -17.3879963352  W2        2269            0.0000000000
      6806      2269  TIP3      H1             31.0220194280      -30.4671824159      -18.3179963352  W2        2269            0.0000000000
      6807      2269  TIP3      H2             31.8291494280      -29.8458624159      -17.1980063352  W2        2269            0.0000000000
      6808      2270  TIP3      OH2            26.5526894280      -36.3687524159      -16.7176663352  W2        2270            0.0000000000
      6809      2270  TIP3      H1             26.2991694280      -36.3495924159      -15.7948563352  W2        2270            0.0000000000
      6810      2270  TIP3      H2             26.2958994280      -37.2402124159      -17.0190463352  W2        2270            0.0000000000
      6811      2271  TIP3      OH2            22.3191894280      -33.6176824159       -6.2824263352  W2        2271            0.0000000000
      6812      2271  TIP3      H1             21.6773994280      -33.6579524159       -5.5734163352  W2        2271            0.0000000000
      6813      2271  TIP3      H2             22.3563894280      -32.6912124159       -6.5201263352  W2        2271            0.0000000000
      6814      2272  TIP3      OH2            22.3160994280      -33.3966724159      -11.3704263352  W2        2272            0.0000000000
      6815      2272  TIP3      H1             21.4233894280      -33.7370624159      -11.4290463352  W2        2272            0.0000000000
      6816      2272  TIP3      H2             22.7667594280      -33.7735824159      -12.1261063352  W2        2272            0.0000000000
      6817      2273  TIP3      OH2            27.8516494280      -32.9806424159      -12.5533463352  W2        2273            0.0000000000
      6818      2273  TIP3      H1             27.4426794280      -32.1657824159      -12.8448663352  W2        2273            0.0000000000
      6819      2273  TIP3      H2             28.5722694280      -33.1206324159      -13.1676363352  W2        2273            0.0000000000
      6820      2274  TIP3      OH2            26.9538094280      -32.8050024159       -1.0652763352  W2        2274            0.0000000000
      6821      2274  TIP3      H1             26.3911894280      -33.5098424159       -0.7444963352  W2        2274            0.0000000000
      6822      2274  TIP3      H2             27.7801494280      -32.9258124159       -0.5975163352  W2        2274            0.0000000000
      6823      2275  TIP3      OH2            28.8564194280      -33.5346024159       -9.7393763352  W2        2275            0.0000000000
      6824      2275  TIP3      H1             28.6608694280      -32.9289224159      -10.4543163352  W2        2275            0.0000000000
      6825      2275  TIP3      H2             29.0376794280      -34.3680824159      -10.1737463352  W2        2275            0.0000000000
      6826      2276  TIP3      OH2            20.0692394280      -33.2973324159       -4.4152263352  W2        2276            0.0000000000
      6827      2276  TIP3      H1             20.0311794280      -32.8971724159       -3.5465163352  W2        2276            0.0000000000
      6828      2276  TIP3      H2             19.5783494280      -34.1140924159       -4.3249363352  W2        2276            0.0000000000
      6829      2277  TIP3      OH2            23.4349794280      -35.9231024159      -17.6166263352  W2        2277            0.0000000000
      6830      2277  TIP3      H1             23.0040494280      -36.3680924159      -16.8868863352  W2        2277            0.0000000000
      6831      2277  TIP3      H2             22.7168494280      -35.5514724159      -18.1288763352  W2        2277            0.0000000000
      6832      2278  TIP3      OH2            16.6773194280      -36.1811524159      -10.5647563352  W2        2278            0.0000000000
      6833      2278  TIP3      H1             17.3080894280      -36.2099424159       -9.8453663352  W2        2278            0.0000000000
      6834      2278  TIP3      H2             17.1267494280      -36.6062824159      -11.2951663352  W2        2278            0.0000000000
      6835      2279  TIP3      OH2            17.9515294280      -35.4349524159      -15.1407163352  W2        2279            0.0000000000
      6836      2279  TIP3      H1             18.4256994280      -34.8439624159      -15.7256263352  W2        2279            0.0000000000
      6837      2279  TIP3      H2             17.2341694280      -34.9046624159      -14.7937063352  W2        2279            0.0000000000
      6838      2280  TIP3      OH2            28.1203394280      -31.8964724159       -5.0681363352  W2        2280            0.0000000000
      6839      2280  TIP3      H1             28.4438194280      -32.5275024159       -5.7110863352  W2        2280            0.0000000000
      6840      2280  TIP3      H2             27.6802694280      -32.4312524159       -4.4073963352  W2        2280            0.0000000000
      6841      2281  TIP3      OH2            24.8976294280      -35.9689224159      -10.2840163352  W2        2281            0.0000000000
      6842      2281  TIP3      H1             23.9867394280      -35.9122424159       -9.9954163352  W2        2281            0.0000000000
      6843      2281  TIP3      H2             25.4029194280      -36.0293724159       -9.4732963352  W2        2281            0.0000000000
      6844      2282  TIP3      OH2            19.7259694280      -34.3402924159      -11.4572563352  W2        2282            0.0000000000
      6845      2282  TIP3      H1             18.8367694280      -34.2407424159      -11.7972963352  W2        2282            0.0000000000
      6846      2282  TIP3      H2             20.0224594280      -35.1819924159      -11.8034663352  W2        2282            0.0000000000
      6847      2283  TIP3      OH2            23.3791494280      -34.3400324159      -13.8007963352  W2        2283            0.0000000000
      6848      2283  TIP3      H1             24.3106994280      -34.2110324159      -13.6224863352  W2        2283            0.0000000000
      6849      2283  TIP3      H2             23.1641794280      -33.6706024159      -14.4503263352  W2        2283            0.0000000000
      6850      2284  TIP3      OH2            29.3028194280      -36.7342924159       -7.0198363352  W2        2284            0.0000000000
      6851      2284  TIP3      H1             28.6259794280      -36.6029824159       -6.3558663352  W2        2284            0.0000000000
      6852      2284  TIP3      H2             28.8173094280      -36.8893424159       -7.8300663352  W2        2284            0.0000000000
      6853      2285  TIP3      OH2            22.0531694280      -33.1458124159      -16.2341863352  W2        2285            0.0000000000
      6854      2285  TIP3      H1             21.5106794280      -33.5254324159      -16.9254263352  W2        2285            0.0000000000
      6855      2285  TIP3      H2             22.8866594280      -32.9513424159      -16.6627763352  W2        2285            0.0000000000
      6856      2286  TIP3      OH2            32.5903294280      -21.0627524159       -0.7430763352  W2        2286            0.0000000000
      6857      2286  TIP3      H1             32.7901994280      -20.6385624159       -1.5775463352  W2        2286            0.0000000000
      6858      2286  TIP3      H2             33.2456994280      -20.7189324159       -0.1360363352  W2        2286            0.0000000000
      6859      2287  TIP3      OH2            20.1883094280      -28.5886224159       -1.1350263352  W2        2287            0.0000000000
      6860      2287  TIP3      H1             20.9205494280      -28.3340324159       -0.5735763352  W2        2287            0.0000000000
      6861      2287  TIP3      H2             19.4081794280      -28.3840824159       -0.6194863352  W2        2287            0.0000000000
      6862      2288  TIP3      OH2            26.2175994280      -33.1816224159       -8.3970563352  W2        2288            0.0000000000
      6863      2288  TIP3      H1             26.7819394280      -33.7279624159       -8.9440963352  W2        2288            0.0000000000
      6864      2288  TIP3      H2             26.0699394280      -33.7034324159       -7.6082963352  W2        2288            0.0000000000
      6865      2289  TIP3      OH2            21.2195694280      -37.0450124159      -11.9785763352  W2        2289            0.0000000000
      6866      2289  TIP3      H1             20.9025194280      -37.9474824159      -12.0140363352  W2        2289            0.0000000000
      6867      2289  TIP3      H2             22.0009794280      -37.0432724159      -12.5314163352  W2        2289            0.0000000000
      6868      2290  TIP3      OH2            24.8441894280      -34.7930124159       -5.9830163352  W2        2290            0.0000000000
      6869      2290  TIP3      H1             24.0087194280      -34.3390624159       -5.8727763352  W2        2290            0.0000000000
      6870      2290  TIP3      H2             25.3682494280      -34.5171624159       -5.2310263352  W2        2290            0.0000000000
      6871      2291  TIP3      OH2            25.3884494280      -28.5802424159      -14.2983763352  W2        2291            0.0000000000
      6872      2291  TIP3      H1             24.6435494280      -29.0877124159      -14.6205863352  W2        2291            0.0000000000
      6873      2291  TIP3      H2             25.2541694280      -28.5314424159      -13.3518963352  W2        2291            0.0000000000
      6874      2292  TIP3      OH2            32.5383394280      -29.4474224159       -5.5116163352  W2        2292            0.0000000000
      6875      2292  TIP3      H1             33.1802194280      -28.9907924159       -6.0553963352  W2        2292            0.0000000000
      6876      2292  TIP3      H2             31.7080294280      -29.3341824159       -5.9742063352  W2        2292            0.0000000000
      6877      2293  TIP3      OH2            29.2861294280      -35.7662524159      -16.0991163352  W2        2293            0.0000000000
      6878      2293  TIP3      H1             28.3475494280      -35.6546924159      -16.2502363352  W2        2293            0.0000000000
      6879      2293  TIP3      H2             29.5833394280      -34.9095624159      -15.7925463352  W2        2293            0.0000000000
      6880      2294  TIP3      OH2            26.9076594280      -28.3959124159       -3.0614663352  W2        2294            0.0000000000
      6881      2294  TIP3      H1             26.5622694280      -28.7776724159       -2.2545063352  W2        2294            0.0000000000
      6882      2294  TIP3      H2             26.7076694280      -27.4625524159       -2.9901763352  W2        2294            0.0000000000
      6883      2295  TIP3      OH2            30.0044794280      -33.8989824159      -14.4383763352  W2        2295            0.0000000000
      6884      2295  TIP3      H1             30.8963794280      -34.0364824159      -14.1192563352  W2        2295            0.0000000000
      6885      2295  TIP3      H2             30.0608394280      -33.1083724159      -14.9750263352  W2        2295            0.0000000000
      6886      2296  TIP3      OH2            20.5132794280      -29.2852424159       -8.5285863352  W2        2296            0.0000000000
      6887      2296  TIP3      H1             21.2579994280      -29.2876724159       -9.1299363352  W2        2296            0.0000000000
      6888      2296  TIP3      H2             20.5909394280      -30.1088624159       -8.0470763352  W2        2296            0.0000000000
      6889      2297  TIP3      OH2            27.5138594280      -27.1218124159      -15.2729163352  W2        2297            0.0000000000
      6890      2297  TIP3      H1             27.2186994280      -26.2950224159      -14.8914363352  W2        2297            0.0000000000
      6891      2297  TIP3      H2             26.8108594280      -27.7411224159      -15.0767763352  W2        2297            0.0000000000
      6892      2298  TIP3      OH2            17.5212494280      -30.8245524159       -3.2137363352  W2        2298            0.0000000000
      6893      2298  TIP3      H1             17.7441094280      -31.2425924159       -2.3819863352  W2        2298            0.0000000000
      6894      2298  TIP3      H2             16.9192594280      -31.4370524159       -3.6364563352  W2        2298            0.0000000000
      6895      2299  TIP3      OH2            24.5377394280      -31.3075624159       -1.0007663352  W2        2299            0.0000000000
      6896      2299  TIP3      H1             24.2418194280      -31.4732624159       -1.8958563352  W2        2299            0.0000000000
      6897      2299  TIP3      H2             25.4692594280      -31.5275324159       -1.0113763352  W2        2299            0.0000000000
      6898      2300  TIP3      OH2            29.1580194280      -25.9343624159       -3.1109663352  W2        2300            0.0000000000
      6899      2300  TIP3      H1             28.2574494280      -25.7511024159       -3.3785763352  W2        2300            0.0000000000
      6900      2300  TIP3      H2             29.1921294280      -25.6754324159       -2.1900863352  W2        2300            0.0000000000
      6901      2301  TIP3      OH2            34.8893494280      -33.6895724159      -14.7437063352  W2        2301            0.0000000000
      6902      2301  TIP3      H1             34.3349794280      -34.0857724159      -15.4159563352  W2        2301            0.0000000000
      6903      2301  TIP3      H2             34.9897094280      -32.7790524159      -15.0213763352  W2        2301            0.0000000000
      6904      2302  TIP3      OH2            34.8525494280      -27.8894024159       -1.9065563352  W2        2302            0.0000000000
      6905      2302  TIP3      H1             34.0013994280      -27.6510224159       -2.2739163352  W2        2302            0.0000000000
      6906      2302  TIP3      H2             35.4428894280      -27.9060824159       -2.6598463352  W2        2302            0.0000000000
      6907      2303  TIP3      OH2            33.1845194280      -24.9035324159      -14.2784963352  W2        2303            0.0000000000
      6908      2303  TIP3      H1             32.8116294280      -25.7291524159      -13.9694363352  W2        2303            0.0000000000
      6909      2303  TIP3      H2             33.4618694280      -25.0865924159      -15.1761563352  W2        2303            0.0000000000
      6910      2304  TIP3      OH2            30.3449094280      -30.0955824159       -7.2573063352  W2        2304            0.0000000000
      6911      2304  TIP3      H1             29.4165994280      -30.3273924159       -7.2843763352  W2        2304            0.0000000000
      6912      2304  TIP3      H2             30.7960194280      -30.8726024159       -7.5874263352  W2        2304            0.0000000000
      6913      2305  TIP3      OH2            22.8882194280      -25.7674224159      -11.1244363352  W2        2305            0.0000000000
      6914      2305  TIP3      H1             23.4154394280      -24.9939824159      -11.3245563352  W2        2305            0.0000000000
      6915      2305  TIP3      H2             22.0080694280      -25.5425024159      -11.4260363352  W2        2305            0.0000000000
      6916      2306  TIP3      OH2            18.6429894280      -30.9050124159      -16.5371963352  W2        2306            0.0000000000
      6917      2306  TIP3      H1             19.2589794280      -30.2782924159      -16.1577163352  W2        2306            0.0000000000
      6918      2306  TIP3      H2             17.7812494280      -30.5890324159      -16.2655463352  W2        2306            0.0000000000
      6919      2307  TIP3      OH2            24.3154494280      -28.1044324159      -11.5480063352  W2        2307            0.0000000000
      6920      2307  TIP3      H1             24.0744494280      -27.1789924159      -11.5064763352  W2        2307            0.0000000000
      6921      2307  TIP3      H2             23.5748094280      -28.5633024159      -11.1516163352  W2        2307            0.0000000000
      6922      2308  TIP3      OH2            24.8301094280      -23.9550724159       -5.2328963352  W2        2308            0.0000000000
      6923      2308  TIP3      H1             25.1925794280      -23.1005124159       -5.4664563352  W2        2308            0.0000000000
      6924      2308  TIP3      H2             25.3616294280      -24.2469124159       -4.4922663352  W2        2308            0.0000000000
      6925      2309  TIP3      OH2            22.9985294280      -23.0826724159      -12.0027863352  W2        2309            0.0000000000
      6926      2309  TIP3      H1             22.0485794280      -22.9769324159      -11.9514563352  W2        2309            0.0000000000
      6927      2309  TIP3      H2             23.3503394280      -22.2619324159      -11.6580363352  W2        2309            0.0000000000
      6928      2310  TIP3      OH2            28.3741894280      -27.8560024159       -5.5323363352  W2        2310            0.0000000000
      6929      2310  TIP3      H1             27.9483194280      -28.0838324159       -4.7059363352  W2        2310            0.0000000000
      6930      2310  TIP3      H2             28.9547694280      -28.5948224159       -5.7148063352  W2        2310            0.0000000000
      6931      2311  TIP3      OH2            30.5770794280      -26.9269524159      -16.4584363352  W2        2311            0.0000000000
      6932      2311  TIP3      H1             30.9303894280      -27.3069724159      -15.6540863352  W2        2311            0.0000000000
      6933      2311  TIP3      H2             29.6284294280      -27.0204724159      -16.3715063352  W2        2311            0.0000000000
      6934      2312  TIP3      OH2            31.0326094280      -23.3040524159       -3.0628563352  W2        2312            0.0000000000
      6935      2312  TIP3      H1             30.4309294280      -23.8597624159       -3.5582263352  W2        2312            0.0000000000
      6936      2312  TIP3      H2             31.3139794280      -22.6370724159       -3.6891163352  W2        2312            0.0000000000
      6937      2313  TIP3      OH2            35.0805194280      -22.4477024159      -16.2574163352  W2        2313            0.0000000000
      6938      2313  TIP3      H1             35.8243094280      -21.8616524159      -16.3972563352  W2        2313            0.0000000000
      6939      2313  TIP3      H2             34.3863294280      -21.8791224159      -15.9241763352  W2        2313            0.0000000000
      6940      2314  TIP3      OH2            19.1551994280      -36.0712824159       -3.6555963352  W2        2314            0.0000000000
      6941      2314  TIP3      H1             18.2624294280      -35.7327424159       -3.7231963352  W2        2314            0.0000000000
      6942      2314  TIP3      H2             19.0564794280      -36.9266724159       -3.2375163352  W2        2314            0.0000000000
      6943      2315  TIP3      OH2            31.4430094280      -28.2547524159      -14.2316463352  W2        2315            0.0000000000
      6944      2315  TIP3      H1             31.1657694280      -28.9828224159      -13.6755363352  W2        2315            0.0000000000
      6945      2315  TIP3      H2             32.3703094280      -28.1355524159      -14.0263863352  W2        2315            0.0000000000
      6946      2316  TIP3      OH2            18.8063994280      -24.2668424159       -5.2206563352  W2        2316            0.0000000000
      6947      2316  TIP3      H1             19.0234294280      -25.1986024159       -5.2516863352  W2        2316            0.0000000000
      6948      2316  TIP3      H2             19.0527494280      -23.9923424159       -4.3373763352  W2        2316            0.0000000000
      6949      2317  TIP3      OH2            24.6678594280      -25.8153424159      -18.0114363352  W2        2317            0.0000000000
      6950      2317  TIP3      H1             24.9068394280      -26.5635324159      -18.5585463352  W2        2317            0.0000000000
      6951      2317  TIP3      H2             24.3989894280      -26.2031724159      -17.1786563352  W2        2317            0.0000000000
      6952      2318  TIP3      OH2            23.6049194280      -26.2449624159      -15.5551763352  W2        2318            0.0000000000
      6953      2318  TIP3      H1             23.7517194280      -26.7649824159      -14.7650863352  W2        2318            0.0000000000
      6954      2318  TIP3      H2             23.6020894280      -25.3382024159      -15.2485863352  W2        2318            0.0000000000
      6955      2319  TIP3      OH2            20.0580294280      -28.9926324159      -15.0446363352  W2        2319            0.0000000000
      6956      2319  TIP3      H1             19.3719594280      -28.6403824159      -14.4776663352  W2        2319            0.0000000000
      6957      2319  TIP3      H2             20.5808194280      -28.2296724159      -15.2912063352  W2        2319            0.0000000000
      6958      2320  TIP3      OH2            27.8895394280      -36.3302524159       -4.7657363352  W2        2320            0.0000000000
      6959      2320  TIP3      H1             28.5883294280      -36.2563824159       -4.1157663352  W2        2320            0.0000000000
      6960      2320  TIP3      H2             27.5086794280      -37.1947524159       -4.6114463352  W2        2320            0.0000000000
      6961      2321  TIP3      OH2            28.6740294280      -36.6780824159      -13.6685063352  W2        2321            0.0000000000
      6962      2321  TIP3      H1             28.8938594280      -36.2065424159      -14.4719663352  W2        2321            0.0000000000
      6963      2321  TIP3      H2             29.2324294280      -36.2838224159      -12.9984463352  W2        2321            0.0000000000
      6964      2322  TIP3      OH2            26.3426394280      -24.5476024159      -14.8057563352  W2        2322            0.0000000000
      6965      2322  TIP3      H1             25.5262494280      -24.0506324159      -14.7533263352  W2        2322            0.0000000000
      6966      2322  TIP3      H2             26.8722694280      -24.0722524159      -15.4458763352  W2        2322            0.0000000000
      6967      2323  TIP3      OH2            25.8740194280      -34.9502024159      -12.8336663352  W2        2323            0.0000000000
      6968      2323  TIP3      H1             26.6862794280      -34.4458824159      -12.7874963352  W2        2323            0.0000000000
      6969      2323  TIP3      H2             25.6293194280      -35.0952324159      -11.9197063352  W2        2323            0.0000000000
      6970      2324  TIP3      OH2            26.4096594280      -33.9639324159       -3.6490063352  W2        2324            0.0000000000
      6971      2324  TIP3      H1             26.5286894280      -33.3903924159       -2.8919663352  W2        2324            0.0000000000
      6972      2324  TIP3      H2             27.0651194280      -34.6519924159       -3.5342263352  W2        2324            0.0000000000
      6973      2325  TIP3      OH2            26.7576894280      -37.8689024159      -11.8955563352  W2        2325            0.0000000000
      6974      2325  TIP3      H1             26.4110394280      -37.2518424159      -11.2511263352  W2        2325            0.0000000000
      6975      2325  TIP3      H2             27.4163794280      -37.3683324159      -12.3770063352  W2        2325            0.0000000000
      6976      2326  TIP3      OH2            23.6809494280      -23.5038824159      -14.8240663352  W2        2326            0.0000000000
      6977      2326  TIP3      H1             23.8418194280      -22.7041324159      -15.3248063352  W2        2326            0.0000000000
      6978      2326  TIP3      H2             23.4837294280      -23.1972824159      -13.9390063352  W2        2326            0.0000000000
      6979      2327  TIP3      OH2            22.4153894280      -36.8059624159      -15.2083063352  W2        2327            0.0000000000
      6980      2327  TIP3      H1             22.3318694280      -35.9176524159      -14.8616663352  W2        2327            0.0000000000
      6981      2327  TIP3      H2             23.3054194280      -37.0712924159      -14.9766263352  W2        2327            0.0000000000
      6982      2328  TIP3      OH2            32.6142394280      -36.0569024159       -2.8140363352  W2        2328            0.0000000000
      6983      2328  TIP3      H1             31.6978194280      -35.7947324159       -2.9016663352  W2        2328            0.0000000000
      6984      2328  TIP3      H2             32.9497394280      -36.0600024159       -3.7105063352  W2        2328            0.0000000000
      6985      2329  TIP3      OH2            31.2163394280      -32.3068024159       -8.7183063352  W2        2329            0.0000000000
      6986      2329  TIP3      H1             30.4187794280      -32.7217824159       -9.0468063352  W2        2329            0.0000000000
      6987      2329  TIP3      H2             31.6614494280      -32.9974324159       -8.2272563352  W2        2329            0.0000000000
      6988      2330  TIP3      OH2            20.6739194280      -26.3787424159      -16.1478563352  W2        2330            0.0000000000
      6989      2330  TIP3      H1             21.2660694280      -25.6792624159      -15.8716163352  W2        2330            0.0000000000
      6990      2330  TIP3      H2             21.1332194280      -26.8117924159      -16.8673963352  W2        2330            0.0000000000
      6991      2331  TIP3      OH2            18.9898394280      -33.7144424159      -17.0319163352  W2        2331            0.0000000000
      6992      2331  TIP3      H1             18.9450994280      -32.7751324159      -16.8532163352  W2        2331            0.0000000000
      6993      2331  TIP3      H2             18.1021594280      -33.9499524159      -17.3017063352  W2        2331            0.0000000000
      6994      2332  TIP3      OH2            32.3027994280      -23.0505524159       -7.0959563352  W2        2332            0.0000000000
      6995      2332  TIP3      H1             32.1472294280      -22.3721124159       -7.7530263352  W2        2332            0.0000000000
      6996      2332  TIP3      H2             33.2354394280      -22.9786224159       -6.8928963352  W2        2332            0.0000000000
      6997      2333  TIP3      OH2            19.7980394280      -38.9327824159       -8.3588163352  W2        2333            0.0000000000
      6998      2333  TIP3      H1             19.5690194280      -38.8735324159       -9.2863163352  W2        2333            0.0000000000
      6999      2333  TIP3      H2             19.3553794280      -39.7242324159       -8.0524063352  W2        2333            0.0000000000
      7000      2334  TIP3      OH2            18.7283694280      -24.9920724159      -12.1982363352  W2        2334            0.0000000000
      7001      2334  TIP3      H1             17.8962294280      -24.5198024159      -12.1710963352  W2        2334            0.0000000000
      7002      2334  TIP3      H2             19.2741994280      -24.4823124159      -12.7969263352  W2        2334            0.0000000000
      7003      2335  TIP3      OH2            18.0167394280      -22.3797024159       -0.8684363352  W2        2335            0.0000000000
      7004      2335  TIP3      H1             18.5569594280      -22.5963024159       -0.1085163352  W2        2335            0.0000000000
      7005      2335  TIP3      H2             17.5355394280      -23.1851024159       -1.0581863352  W2        2335            0.0000000000
      7006      2336  TIP3      OH2            22.6140794280      -23.4602624159        0.7519836648  W2        2336            0.0000000000
      7007      2336  TIP3      H1             23.3817994280      -23.9191824159        1.0929036648  W2        2336            0.0000000000
      7008      2336  TIP3      H2             22.5926994280      -23.6862824159       -0.1778963352  W2        2336            0.0000000000
      7009      2337  TIP3      OH2            26.7060394280      -23.9522024159      -17.8728363352  W2        2337            0.0000000000
      7010      2337  TIP3      H1             26.0621394280      -24.5833424159      -17.5514663352  W2        2337            0.0000000000
      7011      2337  TIP3      H2             27.4678694280      -24.4834024159      -18.1044863352  W2        2337            0.0000000000
      7012      2338  TIP3      OH2            29.1909494280      -25.0801524159       -0.5188663352  W2        2338            0.0000000000
      7013      2338  TIP3      H1             28.8398994280      -25.9368524159       -0.2758263352  W2        2338            0.0000000000
      7014      2338  TIP3      H2             29.9172694280      -24.9374824159        0.0880336648  W2        2338            0.0000000000
      7015      2339  TIP3      OH2            31.3103294280      -24.1352124159      -17.6390363352  W2        2339            0.0000000000
      7016      2339  TIP3      H1             31.5933694280      -24.9296924159      -17.1863463352  W2        2339            0.0000000000
      7017      2339  TIP3      H2             32.0501194280      -23.9021124159      -18.1999263352  W2        2339            0.0000000000
      7018      2340  TIP3      OH2            17.9236894280      -28.5692924159        0.0859936648  W2        2340            0.0000000000
      7019      2340  TIP3      H1             18.0677394280      -29.4712224159       -0.2003363352  W2        2340            0.0000000000
      7020      2340  TIP3      H2             17.1514294280      -28.2830824159       -0.4017763352  W2        2340            0.0000000000
      7021      2341  TIP3      OH2            22.2650594280      -28.2257224159      -17.7815463352  W2        2341            0.0000000000
      7022      2341  TIP3      H1             22.3294694280      -29.0197624159      -17.2509063352  W2        2341            0.0000000000
      7023      2341  TIP3      H2             22.9179794280      -28.3444424159      -18.4713463352  W2        2341            0.0000000000
      7024      2342  TIP3      OH2            24.5792994280      -28.5994824159       -0.4813663352  W2        2342            0.0000000000
      7025      2342  TIP3      H1             24.2506794280      -28.3286724159       -1.3386263352  W2        2342            0.0000000000
      7026      2342  TIP3      H2             24.7311194280      -29.5405024159       -0.5688663352  W2        2342            0.0000000000
      7027      2343  TIP3      OH2            27.6173994280      -27.1785524159      -18.0457463352  W2        2343            0.0000000000
      7028      2343  TIP3      H1             27.3488094280      -26.9983424159      -17.1448563352  W2        2343            0.0000000000
      7029      2343  TIP3      H2             27.4109594280      -28.1039324159      -18.1771663352  W2        2343            0.0000000000
      7030      2344  TIP3      OH2            30.3138194280      -28.6837524159       -3.0981363352  W2        2344            0.0000000000
      7031      2344  TIP3      H1             31.0592994280      -28.0953824159       -3.2177363352  W2        2344            0.0000000000
      7032      2344  TIP3      H2             29.5564994280      -28.1017824159       -3.0348263352  W2        2344            0.0000000000
      7033      2345  TIP3      OH2            18.7563394280      -31.3689624159       -0.4940763352  W2        2345            0.0000000000
      7034      2345  TIP3      H1             19.1644594280      -32.2263024159       -0.6150163352  W2        2345            0.0000000000
      7035      2345  TIP3      H2             18.4960994280      -31.3548324159        0.4269536648  W2        2345            0.0000000000
      7036      2346  TIP3      OH2            23.4144394280      -30.2531024159      -15.4757463352  W2        2346            0.0000000000
      7037      2346  TIP3      H1             22.9546394280      -30.7372724159      -14.7898963352  W2        2346            0.0000000000
      7038      2346  TIP3      H2             23.6693094280      -30.9215624159      -16.1116963352  W2        2346            0.0000000000
      7039      2347  TIP3      OH2            22.7033694280      -32.3603924159       -3.1197863352  W2        2347            0.0000000000
      7040      2347  TIP3      H1             22.0849794280      -31.6857324159       -2.8393163352  W2        2347            0.0000000000
      7041      2347  TIP3      H2             23.0474894280      -32.0390024159       -3.9531663352  W2        2347            0.0000000000
      7042      2348  TIP3      OH2            24.4854794280      -32.0099224159      -17.2134263352  W2        2348            0.0000000000
      7043      2348  TIP3      H1             24.3049794280      -32.1648024159      -18.1405963352  W2        2348            0.0000000000
      7044      2348  TIP3      H2             25.4355294280      -31.9020524159      -17.1686363352  W2        2348            0.0000000000
      7045      2349  TIP3      OH2            27.7231894280      -29.8888624159        0.1576936648  W2        2349            0.0000000000
      7046      2349  TIP3      H1             28.6763094280      -29.8049524159        0.1302936648  W2        2349            0.0000000000
      7047      2349  TIP3      H2             27.5626494280      -30.6006824159        0.7771836648  W2        2349            0.0000000000
      7048      2350  TIP3      OH2            33.8753094280      -29.6555024159      -17.7676163352  W2        2350            0.0000000000
      7049      2350  TIP3      H1             33.6017894280      -30.0799524159      -18.5807863352  W2        2350            0.0000000000
      7050      2350  TIP3      H2             33.9147194280      -28.7240524159      -17.9845763352  W2        2350            0.0000000000
      7051      2351  TIP3      OH2            23.0427394280      -35.0053124159       -2.0374763352  W2        2351            0.0000000000
      7052      2351  TIP3      H1             23.1928294280      -35.7341824159       -2.6395063352  W2        2351            0.0000000000
      7053      2351  TIP3      H2             23.0449794280      -34.2281424159       -2.5962563352  W2        2351            0.0000000000
      7054      2352  TIP3      OH2            23.4553094280      -36.6357324159       -4.5447363352  W2        2352            0.0000000000
      7055      2352  TIP3      H1             23.9910594280      -36.1840624159       -5.1968063352  W2        2352            0.0000000000
      7056      2352  TIP3      H2             22.6032694280      -36.7437524159       -4.9673263352  W2        2352            0.0000000000
      7057      2353  TIP3      OH2            25.0371494280      -31.1961124159       -4.3052163352  W2        2353            0.0000000000
      7058      2353  TIP3      H1             25.7876294280      -31.3523624159       -4.8784363352  W2        2353            0.0000000000
      7059      2353  TIP3      H2             24.6979794280      -30.3444524159       -4.5806663352  W2        2353            0.0000000000
      7060      2354  TIP3      OH2            29.4527694280      -33.3809324159        0.7233136648  W2        2354            0.0000000000
      7061      2354  TIP3      H1             29.6448994280      -34.3119924159        0.6117636648  W2        2354            0.0000000000
      7062      2354  TIP3      H2             30.3103994280      -32.9559824159        0.7128536648  W2        2354            0.0000000000
      7063      2355  TIP3      OH2            30.7694894280      -30.5924124159       -1.1994163352  W2        2355            0.0000000000
      7064      2355  TIP3      H1             30.4879894280      -29.8829524159       -1.7770363352  W2        2355            0.0000000000
      7065      2355  TIP3      H2             31.7119194280      -30.6651124159       -1.3502963352  W2        2355            0.0000000000
      7066      2356  TIP3      OH2            21.5213694280      -33.8069624159       -0.1259163352  W2        2356            0.0000000000
      7067      2356  TIP3      H1             20.7542694280      -34.3394824159       -0.3361563352  W2        2356            0.0000000000
      7068      2356  TIP3      H2             22.2002694280      -34.1169224159       -0.7252863352  W2        2356            0.0000000000
      7069      2357  TIP3      OH2            24.2608594280      -39.1791624159       -4.1133763352  W2        2357            0.0000000000
      7070      2357  TIP3      H1             24.1628194280      -38.2328424159       -4.2187563352  W2        2357            0.0000000000
      7071      2357  TIP3      H2             23.5184794280      -39.5517824159       -4.5890263352  W2        2357            0.0000000000
      7072      2358  TIP3      OH2            25.5249094280      -34.8576224159       -0.5495363352  W2        2358            0.0000000000
      7073      2358  TIP3      H1             25.2894494280      -35.0769524159        0.3519536648  W2        2358            0.0000000000
      7074      2358  TIP3      H2             24.7415994280      -35.0645024159       -1.0592863352  W2        2358            0.0000000000
      7075      2359  TIP3      OH2            28.2405694280      -35.7302724159       -1.4741863352  W2        2359            0.0000000000
      7076      2359  TIP3      H1             27.2931094280      -35.6983024159       -1.3418563352  W2        2359            0.0000000000
      7077      2359  TIP3      H2             28.5532394280      -36.3555624159       -0.8203663352  W2        2359            0.0000000000
      7078      2360  TIP3      OH2            29.8747194280      -37.0961624159        0.5310036648  W2        2360            0.0000000000
      7079      2360  TIP3      H1             29.7778994280      -38.0484324159        0.5251936648  W2        2360            0.0000000000
      7080      2360  TIP3      H2             29.5530294280      -36.8274824159        1.3915536648  W2        2360            0.0000000000
      7081      2361  TIP3      OH2            19.7016494280      -35.8865824159       -0.4214463352  W2        2361            0.0000000000
      7082      2361  TIP3      H1             19.9133894280      -36.5929724159       -1.0316963352  W2        2361            0.0000000000
      7083      2361  TIP3      H2             19.5903994280      -36.3239824159        0.4226736648  W2        2361            0.0000000000
      7084      2362  TIP3      OH2            24.4826694280      -39.8854224159       -1.4420963352  W2        2362            0.0000000000
      7085      2362  TIP3      H1             25.1945094280      -40.5252024159       -1.4561863352  W2        2362            0.0000000000
      7086      2362  TIP3      H2             24.3817094280      -39.6185924159       -2.3557863352  W2        2362            0.0000000000
      7087      2363  TIP3      OH2            24.8364194280      -38.2025824159        0.6115336648  W2        2363            0.0000000000
      7088      2363  TIP3      H1             24.7046394280      -38.6782024159       -0.2086163352  W2        2363            0.0000000000
      7089      2363  TIP3      H2             24.2371594280      -37.4582224159        0.5562436648  W2        2363            0.0000000000
      7090      2364  TIP3      OH2            24.3826494280      -21.3195524159      -16.2120663352  W2        2364            0.0000000000
      7091      2364  TIP3      H1             25.3157194280      -21.1616824159      -16.0682263352  W2        2364            0.0000000000
      7092      2364  TIP3      H2             24.1185294280      -20.6442524159      -16.8369163352  W2        2364            0.0000000000
      7093      2365  TIP3      OH2            17.9511394280      -26.6831724159      -16.7292563352  W2        2365            0.0000000000
      7094      2365  TIP3      H1             18.8650594280      -26.6042824159      -16.4558663352  W2        2365            0.0000000000
      7095      2365  TIP3      H2             17.9584494280      -27.3702124159      -17.3956963352  W2        2365            0.0000000000
      7096      2366  TIP3      OH2            16.6001994280      -21.2903224159      -11.6518663352  W2        2366            0.0000000000
      7097      2366  TIP3      H1             15.9529094280      -21.7521524159      -12.1847463352  W2        2366            0.0000000000
      7098      2366  TIP3      H2             16.9546594280      -21.9619924159      -11.0692463352  W2        2366            0.0000000000
      7099      2367  TIP3      OH2            17.4701194280      -23.2096224159       -9.8472463352  W2        2367            0.0000000000
      7100      2367  TIP3      H1             17.1357994280      -24.0898924159       -9.6752263352  W2        2367            0.0000000000
      7101      2367  TIP3      H2             17.6923594280      -22.8641224159       -8.9826863352  W2        2367            0.0000000000
      7102      2368  TIP3      OH2            35.0185994280      -22.3999824159       -6.8667663352  W2        2368            0.0000000000
      7103      2368  TIP3      H1             34.9972694280      -22.2151424159       -5.9278263352  W2        2368            0.0000000000
      7104      2368  TIP3      H2             35.7092194280      -21.8315824159       -7.2076263352  W2        2368            0.0000000000
      7105      2369  TIP3      OH2            34.5818894280      -22.8328724159       -3.9448563352  W2        2369            0.0000000000
      7106      2369  TIP3      H1             34.0947594280      -23.5684624159       -4.3161163352  W2        2369            0.0000000000
      7107      2369  TIP3      H2             35.1311594280      -23.2264824159       -3.2669163352  W2        2369            0.0000000000
      7108      2370  TIP3      OH2            33.0326194280      -27.0430624159        0.6931736648  W2        2370            0.0000000000
      7109      2370  TIP3      H1             32.1667294280      -27.1480924159        1.0874036648  W2        2370            0.0000000000
      7110      2370  TIP3      H2             33.4092094280      -26.2847324159        1.1396436648  W2        2370            0.0000000000
      7111      2371  TIP3      OH2            34.3335894280      -28.7866924159      -13.7925763352  W2        2371            0.0000000000
      7112      2371  TIP3      H1             35.1837294280      -28.3656024159      -13.6654163352  W2        2371            0.0000000000
      7113      2371  TIP3      H2             34.3390994280      -29.5266824159      -13.1854363352  W2        2371            0.0000000000
      7114      2372  TIP3      OH2            34.7281494280      -30.7329524159      -11.9690063352  W2        2372            0.0000000000
      7115      2372  TIP3      H1             34.0016094280      -31.2126924159      -11.5712463352  W2        2372            0.0000000000
      7116      2372  TIP3      H2             35.3094794280      -30.5274824159      -11.2368463352  W2        2372            0.0000000000
      7117      2373  TIP3      OH2            34.4872694280      -27.9482024159       -7.0212463352  W2        2373            0.0000000000
      7118      2373  TIP3      H1             35.3206894280      -28.3262024159       -7.3018863352  W2        2373            0.0000000000
      7119      2373  TIP3      H2             34.5992994280      -27.0050824159       -7.1403363352  W2        2373            0.0000000000
      7120      2374  TIP3      OH2            32.9734994280      -25.0704524159       -4.7144063352  W2        2374            0.0000000000
      7121      2374  TIP3      H1             32.3260294280      -24.7453024159       -4.0888863352  W2        2374            0.0000000000
      7122      2374  TIP3      H2             32.4558994280      -25.5106824159       -5.3885763352  W2        2374            0.0000000000
      7123      2375  TIP3      OH2            34.9964594280      -30.8321024159      -15.5778763352  W2        2375            0.0000000000
      7124      2375  TIP3      H1             34.4745694280      -30.4756924159      -16.2967863352  W2        2375            0.0000000000
      7125      2375  TIP3      H2             34.9633794280      -30.1573224159      -14.8997863352  W2        2375            0.0000000000
      7126      2376  TIP3      OH2            33.3453594280      -33.5925424159      -17.0271663352  W2        2376            0.0000000000
      7127      2376  TIP3      H1             33.4417994280      -32.9258424159      -17.7071963352  W2        2376            0.0000000000
      7128      2376  TIP3      H2             33.2053194280      -34.4079124159      -17.5086163352  W2        2376            0.0000000000
      7129      2377  TIP3      OH2            32.5148294280      -32.2123024159      -11.4061363352  W2        2377            0.0000000000
      7130      2377  TIP3      H1             32.3647094280      -33.1574424159      -11.4263563352  W2        2377            0.0000000000
      7131      2377  TIP3      H2             32.1612794280      -31.9311624159      -10.5622263352  W2        2377            0.0000000000
      7132      2378  TIP3      OH2            17.5500694280      -30.1340824159       -7.3957563352  W2        2378            0.0000000000
      7133      2378  TIP3      H1             17.7343594280      -30.2159124159       -8.3314663352  W2        2378            0.0000000000
      7134      2378  TIP3      H2             18.3993594280      -30.2583824159       -6.9721163352  W2        2378            0.0000000000
      7135      2379  TIP3      OH2            33.3711194280      -30.2419724159       -1.7673063352  W2        2379            0.0000000000
      7136      2379  TIP3      H1             33.9538494280      -30.9767424159       -1.5755863352  W2        2379            0.0000000000
      7137      2379  TIP3      H2             33.9350494280      -29.4699424159       -1.7207263352  W2        2379            0.0000000000
      7138      2380  TIP3      OH2            34.8678294280      -32.3393924159       -1.0827663352  W2        2380            0.0000000000
      7139      2380  TIP3      H1             34.0044994280      -32.7181824159       -1.2482963352  W2        2380            0.0000000000
      7140      2380  TIP3      H2             35.4721994280      -33.0779124159       -1.1571863352  W2        2380            0.0000000000
      7141      2381  TIP3      OH2            32.5927394280      -36.1845624159      -17.9096163352  W2        2381            0.0000000000
      7142      2381  TIP3      H1             33.2033194280      -36.5558824159      -17.2727963352  W2        2381            0.0000000000
      7143      2381  TIP3      H2             31.7558894280      -36.6058724159      -17.7136163352  W2        2381            0.0000000000
      7144      2382  TIP3      OH2            32.2253094280      -34.6297224159      -12.9436263352  W2        2382            0.0000000000
      7145      2382  TIP3      H1             32.5050194280      -35.5366824159      -12.8194563352  W2        2382            0.0000000000
      7146      2382  TIP3      H2             32.9844794280      -34.1955724159      -13.3327063352  W2        2382            0.0000000000
      7147      2383  TIP3      OH2            32.8371394280      -34.0479824159       -7.5077363352  W2        2383            0.0000000000
      7148      2383  TIP3      H1             33.7699394280      -33.8359924159       -7.5421363352  W2        2383            0.0000000000
      7149      2383  TIP3      H2             32.6018894280      -33.9467724159       -6.5854363352  W2        2383            0.0000000000
      7150      2384  TIP3      OH2            32.8663294280      -33.3114524159       -4.7317963352  W2        2384            0.0000000000
      7151      2384  TIP3      H1             32.0234594280      -33.0434124159       -4.3658163352  W2        2384            0.0000000000
      7152      2384  TIP3      H2             33.3087594280      -32.4892624159       -4.9426863352  W2        2384            0.0000000000
      7153      2385  TIP3      OH2            17.1475494280      -34.8635824159       -1.2548763352  W2        2385            0.0000000000
      7154      2385  TIP3      H1             18.0670394280      -34.9857524159       -1.0185663352  W2        2385            0.0000000000
      7155      2385  TIP3      H2             16.6979994280      -35.6136124159       -0.8655263352  W2        2385            0.0000000000
      7156      2386  TIP3      OH2            35.1494894280      -39.3314324159        0.6217036648  W2        2386            0.0000000000
      7157      2386  TIP3      H1             35.4991894280      -39.9850824159        0.0161736648  W2        2386            0.0000000000
      7158      2386  TIP3      H2             35.2964394280      -38.4940224159        0.1819636648  W2        2386            0.0000000000
      7159      2387  TIP3      OH2            32.8387894280      -37.3667924159      -12.8954263352  W2        2387            0.0000000000
      7160      2387  TIP3      H1             33.0212894280      -37.8156424159      -12.0699263352  W2        2387            0.0000000000
      7161      2387  TIP3      H2             32.2390794280      -37.9513524159      -13.3589663352  W2        2387            0.0000000000
      7162      2388  TIP3      OH2            18.3687994280      -36.5514224159       -8.3635863352  W2        2388            0.0000000000
      7163      2388  TIP3      H1             18.8139594280      -37.3431724159       -8.0616163352  W2        2388            0.0000000000
      7164      2388  TIP3      H2             18.8350994280      -35.8349024159       -7.9330263352  W2        2388            0.0000000000
      7165      2389  TIP3      OH2            16.6728294280      -33.5521224159       -7.2945663352  W2        2389            0.0000000000
      7166      2389  TIP3      H1             17.1648094280      -33.7730724159       -8.0853663352  W2        2389            0.0000000000
      7167      2389  TIP3      H2             17.0349194280      -32.7117824159       -7.0136163352  W2        2389            0.0000000000
      7168      2390  TIP3      OH2            34.6692094280      -37.2219724159       -1.0291663352  W2        2390            0.0000000000
      7169      2390  TIP3      H1             33.7517794280      -36.9512624159       -1.0648163352  W2        2390            0.0000000000
      7170      2390  TIP3      H2             34.7921494280      -37.7571324159       -1.8131963352  W2        2390            0.0000000000
      7171      2391  TIP3      OH2            34.7054094280      -37.2989824159      -16.3673963352  W2        2391            0.0000000000
      7172      2391  TIP3      H1             35.1176694280      -38.0204124159      -16.8425963352  W2        2391            0.0000000000
      7173      2391  TIP3      H2             35.3870594280      -36.6295224159      -16.3089663352  W2        2391            0.0000000000
      7174      2392  TIP3      OH2            16.9864794280      -37.2942124159      -13.2403263352  W2        2392            0.0000000000
      7175      2392  TIP3      H1             16.0613194280      -37.0855524159      -13.3697763352  W2        2392            0.0000000000
      7176      2392  TIP3      H2             17.4404694280      -36.8101324159      -13.9300963352  W2        2392            0.0000000000
      7177      2393  TIP3      OH2            31.7571994280      -22.3100424159      -11.2945863352  W2        2393            0.0000000000
      7178      2393  TIP3      H1             32.4094894280      -22.6578324159      -11.9026763352  W2        2393            0.0000000000
      7179      2393  TIP3      H2             32.2675794280      -21.8217224159      -10.6486163352  W2        2393            0.0000000000
      7180      2394  TIP3      OH2            16.9500194280      -38.5563124159       -4.8960763352  W2        2394            0.0000000000
      7181      2394  TIP3      H1             16.2850694280      -38.8022824159       -4.2529863352  W2        2394            0.0000000000
      7182      2394  TIP3      H2             16.5071494280      -37.9342724159       -5.4732763352  W2        2394            0.0000000000
      7183      2395  TIP3      OH2            19.1419494280      -25.3809024159       -0.7514963352  W2        2395            0.0000000000
      7184      2395  TIP3      H1             18.3211994280      -25.2062524159       -1.2120263352  W2        2395            0.0000000000
      7185      2395  TIP3      H2             18.8897294280      -25.4544324159        0.1689436648  W2        2395            0.0000000000
      7186      2396  TIP3      OH2            22.0962394280      -24.4067824159       -4.4930963352  W2        2396            0.0000000000
      7187      2396  TIP3      H1             21.6713494280      -23.5969324159       -4.7756363352  W2        2396            0.0000000000
      7188      2396  TIP3      H2             23.0005194280      -24.3213724159       -4.7951163352  W2        2396            0.0000000000
      7189      2397  TIP3      OH2            26.4073794280      -23.0077824159       -1.5337263352  W2        2397            0.0000000000
      7190      2397  TIP3      H1             26.5921294280      -23.3411724159       -0.6556963352  W2        2397            0.0000000000
      7191      2397  TIP3      H2             27.2538294280      -22.6979224159       -1.8558063352  W2        2397            0.0000000000
      7192      2398  TIP3      OH2            28.7524194280      -21.7218924159       -2.2895863352  W2        2398            0.0000000000
      7193      2398  TIP3      H1             29.4293094280      -22.3546624159       -2.5296663352  W2        2398            0.0000000000
      7194      2398  TIP3      H2             29.0742994280      -21.3208424159       -1.4822563352  W2        2398            0.0000000000
      7195      2399  TIP3      OH2            33.6697994280      -39.1323424159       -3.2100863352  W2        2399            0.0000000000
      7196      2399  TIP3      H1             32.8571494280      -38.8073124159       -3.5976163352  W2        2399            0.0000000000
      7197      2399  TIP3      H2             33.9026494280      -39.8924924159       -3.7431763352  W2        2399            0.0000000000
      7198      2400  TIP3      OH2            19.4979094280      -21.1503924159       -4.4455663352  W2        2400            0.0000000000
      7199      2400  TIP3      H1             18.7775494280      -20.7102924159       -4.8967963352  W2        2400            0.0000000000
      7200      2400  TIP3      H2             19.1323094280      -21.4009224159       -3.5971663352  W2        2400            0.0000000000
      7201      2401  TIP3      OH2            21.9651694280      -21.5500024159       -5.4158463352  W2        2401            0.0000000000
      7202      2401  TIP3      H1             21.1003894280      -21.4781524159       -5.0118363352  W2        2401            0.0000000000
      7203      2401  TIP3      H2             21.9100694280      -21.0032724159       -6.1995963352  W2        2401            0.0000000000
      7204      2402  TIP3      OH2            26.6757294280      -21.6621124159       -6.2402463352  W2        2402            0.0000000000
      7205      2402  TIP3      H1             26.2191294280      -21.1331424159       -6.8944063352  W2        2402            0.0000000000
      7206      2402  TIP3      H2             26.8385294280      -21.0589724159       -5.5150163352  W2        2402            0.0000000000
      7207      2403  TIP3      OH2            29.0033594280      -22.7841524159       -5.2952163352  W2        2403            0.0000000000
      7208      2403  TIP3      H1             28.0987294280      -22.6191324159       -5.5610063352  W2        2403            0.0000000000
      7209      2403  TIP3      H2             29.4322194280      -21.9309324159       -5.3608763352  W2        2403            0.0000000000
      7210      2404  TIP3      OH2            31.6075494280      -21.2142424159       -5.0004363352  W2        2404            0.0000000000
      7211      2404  TIP3      H1             31.4257494280      -20.2983524159       -5.2109463352  W2        2404            0.0000000000
      7212      2404  TIP3      H2             31.7843294280      -21.6245324159       -5.8469763352  W2        2404            0.0000000000
      7213      2405  TIP3      OH2            18.9127194280      -22.5271424159       -7.5353863352  W2        2405            0.0000000000
      7214      2405  TIP3      H1             18.8943194280      -22.9526324159       -6.6781563352  W2        2405            0.0000000000
      7215      2405  TIP3      H2             19.7175094280      -22.8456424159       -7.9441663352  W2        2405            0.0000000000
      7216      2406  TIP3      OH2            21.0540294280      -23.8172724159       -8.8803963352  W2        2406            0.0000000000
      7217      2406  TIP3      H1             20.8350994280      -24.7335324159       -8.7107963352  W2        2406            0.0000000000
      7218      2406  TIP3      H2             21.8782494280      -23.6772324159       -8.4142563352  W2        2406            0.0000000000
      7219      2407  TIP3      OH2            23.5912794280      -23.3473424159       -8.0315963352  W2        2407            0.0000000000
      7220      2407  TIP3      H1             23.8038494280      -24.2354424159       -8.3185063352  W2        2407            0.0000000000
      7221      2407  TIP3      H2             23.6557894280      -23.3815724159       -7.0771963352  W2        2407            0.0000000000
      7222      2408  TIP3      OH2            27.0996494280      -37.6832824159       -8.8872663352  W2        2408            0.0000000000
      7223      2408  TIP3      H1             26.4253294280      -38.3127224159       -8.6316863352  W2        2408            0.0000000000
      7224      2408  TIP3      H2             27.6635694280      -38.1673924159       -9.4904763352  W2        2408            0.0000000000
      7225      2409  TIP3      OH2            32.2423694280      -39.5758824159       -8.7745563352  W2        2409            0.0000000000
      7226      2409  TIP3      H1             32.8461294280      -39.0283424159       -9.2764563352  W2        2409            0.0000000000
      7227      2409  TIP3      H2             31.3725694280      -39.2568424159       -9.0151463352  W2        2409            0.0000000000
      7228      2410  TIP3      OH2            33.9694094280      -38.4370124159      -10.4414663352  W2        2410            0.0000000000
      7229      2410  TIP3      H1             34.5811594280      -38.9514424159      -10.9681063352  W2        2410            0.0000000000
      7230      2410  TIP3      H2             34.3517494280      -37.5598024159      -10.4180263352  W2        2410            0.0000000000
      7231      2411  TIP3      OH2            19.4263994280      -39.0492524159      -11.0652763352  W2        2411            0.0000000000
      7232      2411  TIP3      H1             18.6493794280      -39.2837624159      -11.5726863352  W2        2411            0.0000000000
      7233      2411  TIP3      H2             19.9567594280      -39.8460424159      -11.0564763352  W2        2411            0.0000000000
      7234      2412  TIP3      OH2            18.2627394280      -39.2514424159      -15.2616663352  W2        2412            0.0000000000
      7235      2412  TIP3      H1             18.7018094280      -38.6403924159      -15.8533163352  W2        2412            0.0000000000
      7236      2412  TIP3      H2             17.6289794280      -38.7130324159      -14.7876663352  W2        2412            0.0000000000
      7237      2413  TIP3      OH2            24.0056594280      -39.1225424159      -11.2519663352  W2        2413            0.0000000000
      7238      2413  TIP3      H1             24.8799994280      -38.7341124159      -11.2815363352  W2        2413            0.0000000000
      7239      2413  TIP3      H2             23.8697394280      -39.3377624159      -10.3292463352  W2        2413            0.0000000000
      7240      2414  TIP3      OH2            29.5624994280      -39.0925624159       -9.6027963352  W2        2414            0.0000000000
      7241      2414  TIP3      H1             29.6386594280      -38.9974024159      -10.5521963352  W2        2414            0.0000000000
      7242      2414  TIP3      H2             29.2874194280      -40.0002724159       -9.4738863352  W2        2414            0.0000000000
      7243      2415  TIP3      OH2            30.9157594280      -39.0667824159      -13.9102963352  W2        2415            0.0000000000
      7244      2415  TIP3      H1             30.2128694280      -38.4518624159      -14.1201563352  W2        2415            0.0000000000
      7245      2415  TIP3      H2             30.4708994280      -39.9041124159      -13.7792063352  W2        2415            0.0000000000
      7246      2416  TIP3      OH2            18.1636894280      -23.3032224159      -14.3641563352  W2        2416            0.0000000000
      7247      2416  TIP3      H1             17.4786794280      -23.3413324159      -15.0316463352  W2        2416            0.0000000000
      7248      2416  TIP3      H2             18.1674094280      -22.3904624159      -14.0759463352  W2        2416            0.0000000000
      7249      2417  TIP3      OH2            20.1236494280      -37.3352924159      -16.8192563352  W2        2417            0.0000000000
      7250      2417  TIP3      H1             20.6149894280      -37.9650524159      -17.3467063352  W2        2417            0.0000000000
      7251      2417  TIP3      H2             20.7472794280      -37.0393524159      -16.1561363352  W2        2417            0.0000000000
      7252      2418  TIP3      OH2            25.1496594280      -37.0421424159      -14.3622063352  W2        2418            0.0000000000
      7253      2418  TIP3      H1             25.3277894280      -37.6888224159      -13.6793463352  W2        2418            0.0000000000
      7254      2418  TIP3      H2             25.0962794280      -36.2083724159      -13.8950963352  W2        2418            0.0000000000
      7255      2419  TIP3      OH2            27.0280394280      -22.0937324159      -15.9665363352  W2        2419            0.0000000000
      7256      2419  TIP3      H1             27.8940594280      -21.7269924159      -16.1447163352  W2        2419            0.0000000000
      7257      2419  TIP3      H2             26.7813194280      -22.5329324159      -16.7804563352  W2        2419            0.0000000000
      7258      2420  TIP3      OH2            33.7369994280      -22.5307024159      -13.2874263352  W2        2420            0.0000000000
      7259      2420  TIP3      H1             33.5427094280      -23.2784924159      -13.8524663352  W2        2420            0.0000000000
      7260      2420  TIP3      H2             33.6980094280      -21.7726924159      -13.8706363352  W2        2420            0.0000000000
      7261      2421  TIP3      OH2            19.3841994280      -38.5350624159       -1.5476563352  W2        2421            0.0000000000
      7262      2421  TIP3      H1             19.0180194280      -39.3008024159       -1.1051863352  W2        2421            0.0000000000
      7263      2421  TIP3      H2             20.2970494280      -38.5060424159       -1.2611463352  W2        2421            0.0000000000
      7264      2422  TIP3      OH2            21.3572794280      -39.1846224159       -0.0119463352  W2        2422            0.0000000000
      7265      2422  TIP3      H1             22.2556394280      -39.4586024159       -0.1966063352  W2        2422            0.0000000000
      7266      2422  TIP3      H2             20.9705894280      -39.9270224159        0.4523136648  W2        2422            0.0000000000
      7267      2423  TIP3      OH2            19.9818094280      -22.3831424159      -17.3389463352  W2        2423            0.0000000000
      7268      2423  TIP3      H1             19.7142694280      -22.0968524159      -16.4656363352  W2        2423            0.0000000000
      7269      2423  TIP3      H2             20.7530694280      -22.9292224159      -17.1866963352  W2        2423            0.0000000000
      7270      2424  TIP3      OH2            29.7785094280      -39.8520924159        0.1703336648  W2        2424            0.0000000000
      7271      2424  TIP3      H1             29.8552294280      -40.2780224159        1.0241036648  W2        2424            0.0000000000
      7272      2424  TIP3      H2             30.6721694280      -39.8386224159       -0.1723163352  W2        2424            0.0000000000
      7273      2425  TIP3      OH2            32.9546194280      -23.7794624159       -1.1372463352  W2        2425            0.0000000000
      7274      2425  TIP3      H1             32.1728094280      -23.9656624159       -1.6571863352  W2        2425            0.0000000000
      7275      2425  TIP3      H2             32.8826094280      -22.8500324159       -0.9199963352  W2        2425            0.0000000000
      7276      2426  TIP3      OH2            47.3606594280      -29.8930224159      -11.1065263352  W2        2426            0.0000000000
      7277      2426  TIP3      H1             47.4497694280      -28.9492024159      -11.2388163352  W2        2426            0.0000000000
      7278      2426  TIP3      H2             46.7224194280      -30.1683824159      -11.7645863352  W2        2426            0.0000000000
      7279      2427  TIP3      OH2            46.2937894280      -30.6379524159       -7.6877063352  W2        2427            0.0000000000
      7280      2427  TIP3      H1             46.2555394280      -31.2843224159       -6.9827463352  W2        2427            0.0000000000
      7281      2427  TIP3      H2             45.9714394280      -31.1045124159       -8.4588363352  W2        2427            0.0000000000
      7282      2428  TIP3      OH2            38.6622894280      -31.0237424159       -6.0947163352  W2        2428            0.0000000000
      7283      2428  TIP3      H1             38.7034994280      -31.6494124159       -5.3714763352  W2        2428            0.0000000000
      7284      2428  TIP3      H2             39.3650594280      -30.3998824159       -5.9126763352  W2        2428            0.0000000000
      7285      2429  TIP3      OH2            49.9998094280      -27.6989124159       -9.3861963352  W2        2429            0.0000000000
      7286      2429  TIP3      H1             49.5590794280      -28.4193124159       -8.9356363352  W2        2429            0.0000000000
      7287      2429  TIP3      H2             49.9867794280      -26.9781924159       -8.7564263352  W2        2429            0.0000000000
      7288      2430  TIP3      OH2            39.5855994280      -26.5738524159       -7.5598063352  W2        2430            0.0000000000
      7289      2430  TIP3      H1             39.2161194280      -27.3758024159       -7.9293763352  W2        2430            0.0000000000
      7290      2430  TIP3      H2             40.5267094280      -26.7423624159       -7.5134663352  W2        2430            0.0000000000
      7291      2431  TIP3      OH2            36.1956494280      -32.9135924159      -12.1669263352  W2        2431            0.0000000000
      7292      2431  TIP3      H1             35.7479894280      -32.0677224159      -12.1852763352  W2        2431            0.0000000000
      7293      2431  TIP3      H2             35.6347694280      -33.4931724159      -12.6824163352  W2        2431            0.0000000000
      7294      2432  TIP3      OH2            36.9062594280      -30.7516324159      -10.0411263352  W2        2432            0.0000000000
      7295      2432  TIP3      H1             37.1196094280      -31.5214724159       -9.5138263352  W2        2432            0.0000000000
      7296      2432  TIP3      H2             37.6440194280      -30.6619624159      -10.6443663352  W2        2432            0.0000000000
      7297      2433  TIP3      OH2            47.1113594280      -22.5947424159       -9.1741563352  W2        2433            0.0000000000
      7298      2433  TIP3      H1             47.7309994280      -23.2712724159       -9.4472363352  W2        2433            0.0000000000
      7299      2433  TIP3      H2             46.9030994280      -22.8126624159       -8.2656663352  W2        2433            0.0000000000
      7300      2434  TIP3      OH2            44.6832294280      -28.2058124159       -7.2816063352  W2        2434            0.0000000000
      7301      2434  TIP3      H1             44.9870194280      -28.8916724159       -7.8761963352  W2        2434            0.0000000000
      7302      2434  TIP3      H2             45.4046294280      -28.0869424159       -6.6638063352  W2        2434            0.0000000000
      7303      2435  TIP3      OH2            53.3462094280      -36.6042824159       -6.4209863352  W2        2435            0.0000000000
      7304      2435  TIP3      H1             53.3954294280      -35.9941624159       -5.6850763352  W2        2435            0.0000000000
      7305      2435  TIP3      H2             53.7717194280      -36.1431924159       -7.1438763352  W2        2435            0.0000000000
      7306      2436  TIP3      OH2            47.8239294280      -33.8115724159       -6.9541263352  W2        2436            0.0000000000
      7307      2436  TIP3      H1             47.9665194280      -34.7578724159       -6.9339663352  W2        2436            0.0000000000
      7308      2436  TIP3      H2             47.7178294280      -33.6045924159       -7.8826363352  W2        2436            0.0000000000
      7309      2437  TIP3      OH2            40.9787594280      -35.7099324159       -9.6816463352  W2        2437            0.0000000000
      7310      2437  TIP3      H1             41.0218694280      -34.8500824159      -10.1000163352  W2        2437            0.0000000000
      7311      2437  TIP3      H2             40.5211694280      -36.2624624159      -10.3153263352  W2        2437            0.0000000000
      7312      2438  TIP3      OH2            48.7010294280      -35.5793724159      -11.2808163352  W2        2438            0.0000000000
      7313      2438  TIP3      H1             49.3474594280      -35.9080524159      -10.6560563352  W2        2438            0.0000000000
      7314      2438  TIP3      H2             49.2109694280      -35.0614724159      -11.9036763352  W2        2438            0.0000000000
      7315      2439  TIP3      OH2            37.5989094280      -33.3133524159       -8.9195063352  W2        2439            0.0000000000
      7316      2439  TIP3      H1             38.2525694280      -33.8631824159       -8.4874963352  W2        2439            0.0000000000
      7317      2439  TIP3      H2             37.6228394280      -33.5874524159       -9.8363063352  W2        2439            0.0000000000
      7318      2440  TIP3      OH2            42.7553594280      -31.7632224159       -9.7043563352  W2        2440            0.0000000000
      7319      2440  TIP3      H1             43.3714594280      -32.2896824159       -9.1949563352  W2        2440            0.0000000000
      7320      2440  TIP3      H2             42.1692394280      -32.4033524159      -10.1079963352  W2        2440            0.0000000000
      7321      2441  TIP3      OH2            53.7376694280      -35.1263624159       -4.1850063352  W2        2441            0.0000000000
      7322      2441  TIP3      H1             53.0491294280      -34.4682924159       -4.2803463352  W2        2441            0.0000000000
      7323      2441  TIP3      H2             53.7531294280      -35.3235724159       -3.2484663352  W2        2441            0.0000000000
      7324      2442  TIP3      OH2            39.7889494280      -36.7920924159       -5.6075663352  W2        2442            0.0000000000
      7325      2442  TIP3      H1             39.5701194280      -36.2620324159       -6.3739663352  W2        2442            0.0000000000
      7326      2442  TIP3      H2             39.1210394280      -36.5655424159       -4.9604263352  W2        2442            0.0000000000
      7327      2443  TIP3      OH2            47.1579294280      -27.2919824159      -12.0636563352  W2        2443            0.0000000000
      7328      2443  TIP3      H1             46.8624394280      -27.6147524159      -12.9149663352  W2        2443            0.0000000000
      7329      2443  TIP3      H2             46.8337094280      -26.3923124159      -12.0223963352  W2        2443            0.0000000000
      7330      2444  TIP3      OH2            42.3580894280      -29.1165224159       -5.3201963352  W2        2444            0.0000000000
      7331      2444  TIP3      H1             41.6179994280      -28.5183724159       -5.2166763352  W2        2444            0.0000000000
      7332      2444  TIP3      H2             43.0720394280      -28.5625624159       -5.6358363352  W2        2444            0.0000000000
      7333      2445  TIP3      OH2            50.4648694280      -36.2884424159       -9.3002263352  W2        2445            0.0000000000
      7334      2445  TIP3      H1             50.2496694280      -37.0541024159       -8.7676263352  W2        2445            0.0000000000
      7335      2445  TIP3      H2             51.1206094280      -35.8159824159       -8.7873763352  W2        2445            0.0000000000
      7336      2446  TIP3      OH2            39.3826794280      -34.8999124159       -7.6553463352  W2        2446            0.0000000000
      7337      2446  TIP3      H1             39.9963094280      -34.2671524159       -7.2821063352  W2        2446            0.0000000000
      7338      2446  TIP3      H2             39.8947494280      -35.3724124159       -8.3116563352  W2        2446            0.0000000000
      7339      2447  TIP3      OH2            40.7655194280      -27.1522224159       -4.5330463352  W2        2447            0.0000000000
      7340      2447  TIP3      H1             40.7602794280      -26.2728724159       -4.9111163352  W2        2447            0.0000000000
      7341      2447  TIP3      H2             39.9119294280      -27.2358124159       -4.1080563352  W2        2447            0.0000000000
      7342      2448  TIP3      OH2            36.8866094280      -27.4814324159      -13.7511163352  W2        2448            0.0000000000
      7343      2448  TIP3      H1             36.6146994280      -27.2523324159      -14.6398263352  W2        2448            0.0000000000
      7344      2448  TIP3      H2             36.9321794280      -26.6435524159      -13.2905863352  W2        2448            0.0000000000
      7345      2449  TIP3      OH2            50.5115794280      -25.8598424159       -7.0382663352  W2        2449            0.0000000000
      7346      2449  TIP3      H1             49.5699494280      -25.8014524159       -6.8765763352  W2        2449            0.0000000000
      7347      2449  TIP3      H2             50.7881894280      -24.9537924159       -7.1752963352  W2        2449            0.0000000000
      7348      2450  TIP3      OH2            50.8122794280      -37.5733124159       -5.6208763352  W2        2450            0.0000000000
      7349      2450  TIP3      H1             50.0761994280      -36.9626024159       -5.6587463352  W2        2450            0.0000000000
      7350      2450  TIP3      H2             51.4956794280      -37.1584124159       -6.1472363352  W2        2450            0.0000000000
      7351      2451  TIP3      OH2            43.8154194280      -39.4865824159       -8.1550763352  W2        2451            0.0000000000
      7352      2451  TIP3      H1             43.6978394280      -40.4349824159       -8.2092463352  W2        2451            0.0000000000
      7353      2451  TIP3      H2             42.9604294280      -39.1539724159       -7.8819663352  W2        2451            0.0000000000
      7354      2452  TIP3      OH2            48.7636994280      -24.0784924159      -10.4131063352  W2        2452            0.0000000000
      7355      2452  TIP3      H1             49.1889294280      -24.7857024159      -10.8981463352  W2        2452            0.0000000000
      7356      2452  TIP3      H2             49.0806994280      -23.2772224159      -10.8298863352  W2        2452            0.0000000000
      7357      2453  TIP3      OH2            49.9233494280      -26.1776424159      -11.9044463352  W2        2453            0.0000000000
      7358      2453  TIP3      H1             49.6658294280      -26.8676324159      -12.5158563352  W2        2453            0.0000000000
      7359      2453  TIP3      H2             49.9944294280      -26.6205224159      -11.0588563352  W2        2453            0.0000000000
      7360      2454  TIP3      OH2            51.6093694280      -27.6109724159       -3.4270963352  W2        2454            0.0000000000
      7361      2454  TIP3      H1             51.7489994280      -28.2027224159       -4.1663963352  W2        2454            0.0000000000
      7362      2454  TIP3      H2             51.7766494280      -26.7383824159       -3.7832163352  W2        2454            0.0000000000
      7363      2455  TIP3      OH2            46.0819094280      -30.6490224159      -13.6544963352  W2        2455            0.0000000000
      7364      2455  TIP3      H1             45.3704594280      -30.1140524159      -14.0064463352  W2        2455            0.0000000000
      7365      2455  TIP3      H2             46.7728694280      -30.5938124159      -14.3146063352  W2        2455            0.0000000000
      7366      2456  TIP3      OH2            46.1358294280      -32.1915924159      -16.6159963352  W2        2456            0.0000000000
      7367      2456  TIP3      H1             46.8368194280      -32.1689024159      -15.9645963352  W2        2456            0.0000000000
      7368      2456  TIP3      H2             46.4381194280      -32.8196224159      -17.2720663352  W2        2456            0.0000000000
      7369      2457  TIP3      OH2            53.4512994280      -31.2711724159       -5.3610563352  W2        2457            0.0000000000
      7370      2457  TIP3      H1             52.7987094280      -30.5766124159       -5.2719663352  W2        2457            0.0000000000
      7371      2457  TIP3      H2             53.9163294280      -31.0610824159       -6.1708963352  W2        2457            0.0000000000
      7372      2458  TIP3      OH2            49.4876794280      -30.4396924159      -12.7029063352  W2        2458            0.0000000000
      7373      2458  TIP3      H1             48.7557794280      -30.2113224159      -12.1298463352  W2        2458            0.0000000000
      7374      2458  TIP3      H2             49.9348994280      -31.1534224159      -12.2481563352  W2        2458            0.0000000000
      7375      2459  TIP3      OH2            49.3850294280      -32.2654324159       -3.6352063352  W2        2459            0.0000000000
      7376      2459  TIP3      H1             49.4649394280      -31.5019924159       -3.0633563352  W2        2459            0.0000000000
      7377      2459  TIP3      H2             48.7837994280      -31.9861924159       -4.3256963352  W2        2459            0.0000000000
      7378      2460  TIP3      OH2            41.1330494280      -29.8090724159      -10.8204063352  W2        2460            0.0000000000
      7379      2460  TIP3      H1             40.8025694280      -30.1797324159      -11.6387063352  W2        2460            0.0000000000
      7380      2460  TIP3      H2             41.7214594280      -30.4796724159      -10.4735763352  W2        2460            0.0000000000
      7381      2461  TIP3      OH2            42.4997994280      -26.3810124159       -8.1391863352  W2        2461            0.0000000000
      7382      2461  TIP3      H1             42.4049294280      -26.9597024159       -8.8957263352  W2        2461            0.0000000000
      7383      2461  TIP3      H2             43.2291594280      -26.7524424159       -7.6429063352  W2        2461            0.0000000000
      7384      2462  TIP3      OH2            41.4995994280      -31.0405124159       -7.1869063352  W2        2462            0.0000000000
      7385      2462  TIP3      H1             42.0648494280      -30.9190924159       -7.9497863352  W2        2462            0.0000000000
      7386      2462  TIP3      H2             41.8184894280      -30.4030124159       -6.5480563352  W2        2462            0.0000000000
      7387      2463  TIP3      OH2            47.8088194280      -25.5373224159       -6.4528563352  W2        2463            0.0000000000
      7388      2463  TIP3      H1             47.5684794280      -24.8750124159       -5.8049363352  W2        2463            0.0000000000
      7389      2463  TIP3      H2             47.6106394280      -26.3718024159       -6.0278963352  W2        2463            0.0000000000
      7390      2464  TIP3      OH2            42.3796694280      -26.6412424159       -2.4697163352  W2        2464            0.0000000000
      7391      2464  TIP3      H1             42.0684194280      -25.8589224159       -2.0143963352  W2        2464            0.0000000000
      7392      2464  TIP3      H2             41.7296894280      -26.7943324159       -3.1555163352  W2        2464            0.0000000000
      7393      2465  TIP3      OH2            48.3586294280      -31.2774024159      -15.0177863352  W2        2465            0.0000000000
      7394      2465  TIP3      H1             48.9381794280      -31.1273724159      -14.2708963352  W2        2465            0.0000000000
      7395      2465  TIP3      H2             48.7726294280      -30.8066624159      -15.7411463352  W2        2465            0.0000000000
      7396      2466  TIP3      OH2            39.2996594280      -30.4431324159       -3.2411463352  W2        2466            0.0000000000
      7397      2466  TIP3      H1             39.3699794280      -29.7924524159       -2.5426463352  W2        2466            0.0000000000
      7398      2466  TIP3      H2             38.4088794280      -30.3403824159       -3.5760563352  W2        2466            0.0000000000
      7399      2467  TIP3      OH2            46.0851194280      -24.5405524159      -11.5824763352  W2        2467            0.0000000000
      7400      2467  TIP3      H1             46.5588794280      -24.2449224159      -10.8050563352  W2        2467            0.0000000000
      7401      2467  TIP3      H2             45.5220494280      -23.8023924159      -11.8155163352  W2        2467            0.0000000000
      7402      2468  TIP3      OH2            40.6192594280      -24.5697424159       -1.7063363352  W2        2468            0.0000000000
      7403      2468  TIP3      H1             40.6267894280      -24.7057724159       -2.6537863352  W2        2468            0.0000000000
      7404      2468  TIP3      H2             39.7032994280      -24.6869324159       -1.4543363352  W2        2468            0.0000000000
      7405      2469  TIP3      OH2            52.0574694280      -39.5273624159      -15.2048163352  W2        2469            0.0000000000
      7406      2469  TIP3      H1             51.1575394280      -39.3884624159      -14.9097563352  W2        2469            0.0000000000
      7407      2469  TIP3      H2             52.3093094280      -38.6959024159      -15.6066463352  W2        2469            0.0000000000
      7408      2470  TIP3      OH2            40.1233194280      -30.7396424159      -13.2311263352  W2        2470            0.0000000000
      7409      2470  TIP3      H1             39.8314494280      -29.9714724159      -13.7219963352  W2        2470            0.0000000000
      7410      2470  TIP3      H2             39.4488394280      -31.3990224159      -13.3939863352  W2        2470            0.0000000000
      7411      2471  TIP3      OH2            53.2466094280      -25.1611224159      -16.8284263352  W2        2471            0.0000000000
      7412      2471  TIP3      H1             53.3199594280      -24.2221024159      -16.6578963352  W2        2471            0.0000000000
      7413      2471  TIP3      H2             54.1521194280      -25.4662624159      -16.8846963352  W2        2471            0.0000000000
      7414      2472  TIP3      OH2            36.2163294280      -28.3767224159       -4.4161463352  W2        2472            0.0000000000
      7415      2472  TIP3      H1             35.7151694280      -28.4047824159       -5.2311763352  W2        2472            0.0000000000
      7416      2472  TIP3      H2             36.2216994280      -29.2824024159       -4.1064163352  W2        2472            0.0000000000
      7417      2473  TIP3      OH2            35.9665994280      -25.5963424159       -7.5321263352  W2        2473            0.0000000000
      7418      2473  TIP3      H1             36.9126594280      -25.7406424159       -7.5511763352  W2        2473            0.0000000000
      7419      2473  TIP3      H2             35.8542294280      -24.8120624159       -6.9950063352  W2        2473            0.0000000000
      7420      2474  TIP3      OH2            54.1644494280      -24.9303724159       -1.8497563352  W2        2474            0.0000000000
      7421      2474  TIP3      H1             54.1151294280      -25.8855624159       -1.8869963352  W2        2474            0.0000000000
      7422      2474  TIP3      H2             53.3376794280      -24.6628424159       -1.4483763352  W2        2474            0.0000000000
      7423      2475  TIP3      OH2            45.1428494280      -25.3564524159       -2.9736163352  W2        2475            0.0000000000
      7424      2475  TIP3      H1             45.2303094280      -24.5299924159       -2.4987063352  W2        2475            0.0000000000
      7425      2475  TIP3      H2             44.2793594280      -25.6860724159       -2.7246863352  W2        2475            0.0000000000
      7426      2476  TIP3      OH2            45.5574294280      -21.5840824159      -13.1675563352  W2        2476            0.0000000000
      7427      2476  TIP3      H1             45.4820294280      -21.7053624159      -14.1140363352  W2        2476            0.0000000000
      7428      2476  TIP3      H2             45.5902994280      -20.6348124159      -13.0490963352  W2        2476            0.0000000000
      7429      2477  TIP3      OH2            39.2108094280      -22.7953824159      -11.3866563352  W2        2477            0.0000000000
      7430      2477  TIP3      H1             39.3628494280      -23.1433424159      -10.5080063352  W2        2477            0.0000000000
      7431      2477  TIP3      H2             38.3598494280      -23.1516524159      -11.6419363352  W2        2477            0.0000000000
      7432      2478  TIP3      OH2            48.6590294280      -22.4300624159      -16.1653163352  W2        2478            0.0000000000
      7433      2478  TIP3      H1             49.0338694280      -23.1744524159      -16.6360563352  W2        2478            0.0000000000
      7434      2478  TIP3      H2             48.6633994280      -22.7000024159      -15.2469863352  W2        2478            0.0000000000
      7435      2479  TIP3      OH2            48.3278394280      -22.5043524159      -13.4160963352  W2        2479            0.0000000000
      7436      2479  TIP3      H1             47.3928194280      -22.4041624159      -13.2373963352  W2        2479            0.0000000000
      7437      2479  TIP3      H2             48.6080294280      -23.2137524159      -12.8377763352  W2        2479            0.0000000000
      7438      2480  TIP3      OH2            51.3164294280      -33.4371224159       -1.3695363352  W2        2480            0.0000000000
      7439      2480  TIP3      H1             50.9091094280      -32.9565624159       -2.0902063352  W2        2480            0.0000000000
      7440      2480  TIP3      H2             51.3569994280      -34.3425224159       -1.6774563352  W2        2480            0.0000000000
      7441      2481  TIP3      OH2            38.4653794280      -27.0531824159       -3.3728663352  W2        2481            0.0000000000
      7442      2481  TIP3      H1             38.6815094280      -27.4146224159       -2.5132863352  W2        2481            0.0000000000
      7443      2481  TIP3      H2             37.6098494280      -27.4278024159       -3.5825163352  W2        2481            0.0000000000
      7444      2482  TIP3      OH2            41.0841794280      -38.5831324159       -7.3774463352  W2        2482            0.0000000000
      7445      2482  TIP3      H1             40.2225494280      -38.6703124159       -7.7851563352  W2        2482            0.0000000000
      7446      2482  TIP3      H2             41.0617494280      -37.7271224159       -6.9496863352  W2        2482            0.0000000000
      7447      2483  TIP3      OH2            45.7469594280      -38.8610924159       -4.0027463352  W2        2483            0.0000000000
      7448      2483  TIP3      H1             46.1672694280      -39.2763824159       -3.2496863352  W2        2483            0.0000000000
      7449      2483  TIP3      H2             44.8139194280      -39.0397624159       -3.8855463352  W2        2483            0.0000000000
      7450      2484  TIP3      OH2            49.0734494280      -35.1055724159       -3.1492963352  W2        2484            0.0000000000
      7451      2484  TIP3      H1             48.5593994280      -35.2313524159       -2.3516963352  W2        2484            0.0000000000
      7452      2484  TIP3      H2             48.9179194280      -34.1932624159       -3.3936763352  W2        2484            0.0000000000
      7453      2485  TIP3      OH2            49.8359394280      -30.2445724159      -17.3879963352  W2        2485            0.0000000000
      7454      2485  TIP3      H1             49.8780194280      -30.4671824159      -18.3179963352  W2        2485            0.0000000000
      7455      2485  TIP3      H2             50.6851494280      -29.8458624159      -17.1980063352  W2        2485            0.0000000000
      7456      2486  TIP3      OH2            45.4086894280      -36.3687524159      -16.7176663352  W2        2486            0.0000000000
      7457      2486  TIP3      H1             45.1551694280      -36.3495924159      -15.7948563352  W2        2486            0.0000000000
      7458      2486  TIP3      H2             45.1518994280      -37.2402124159      -17.0190463352  W2        2486            0.0000000000
      7459      2487  TIP3      OH2            41.1751894280      -33.6176824159       -6.2824263352  W2        2487            0.0000000000
      7460      2487  TIP3      H1             40.5333994280      -33.6579524159       -5.5734163352  W2        2487            0.0000000000
      7461      2487  TIP3      H2             41.2123894280      -32.6912124159       -6.5201263352  W2        2487            0.0000000000
      7462      2488  TIP3      OH2            41.1720994280      -33.3966724159      -11.3704263352  W2        2488            0.0000000000
      7463      2488  TIP3      H1             40.2793894280      -33.7370624159      -11.4290463352  W2        2488            0.0000000000
      7464      2488  TIP3      H2             41.6227594280      -33.7735824159      -12.1261063352  W2        2488            0.0000000000
      7465      2489  TIP3      OH2            46.7076494280      -32.9806424159      -12.5533463352  W2        2489            0.0000000000
      7466      2489  TIP3      H1             46.2986794280      -32.1657824159      -12.8448663352  W2        2489            0.0000000000
      7467      2489  TIP3      H2             47.4282694280      -33.1206324159      -13.1676363352  W2        2489            0.0000000000
      7468      2490  TIP3      OH2            45.8098094280      -32.8050024159       -1.0652763352  W2        2490            0.0000000000
      7469      2490  TIP3      H1             45.2471894280      -33.5098424159       -0.7444963352  W2        2490            0.0000000000
      7470      2490  TIP3      H2             46.6361494280      -32.9258124159       -0.5975163352  W2        2490            0.0000000000
      7471      2491  TIP3      OH2            47.7124194280      -33.5346024159       -9.7393763352  W2        2491            0.0000000000
      7472      2491  TIP3      H1             47.5168694280      -32.9289224159      -10.4543163352  W2        2491            0.0000000000
      7473      2491  TIP3      H2             47.8936794280      -34.3680824159      -10.1737463352  W2        2491            0.0000000000
      7474      2492  TIP3      OH2            38.9252394280      -33.2973324159       -4.4152263352  W2        2492            0.0000000000
      7475      2492  TIP3      H1             38.8871794280      -32.8971724159       -3.5465163352  W2        2492            0.0000000000
      7476      2492  TIP3      H2             38.4343494280      -34.1140924159       -4.3249363352  W2        2492            0.0000000000
      7477      2493  TIP3      OH2            42.2909794280      -35.9231024159      -17.6166263352  W2        2493            0.0000000000
      7478      2493  TIP3      H1             41.8600494280      -36.3680924159      -16.8868863352  W2        2493            0.0000000000
      7479      2493  TIP3      H2             41.5728494280      -35.5514724159      -18.1288763352  W2        2493            0.0000000000
      7480      2494  TIP3      OH2            35.5333194280      -36.1811524159      -10.5647563352  W2        2494            0.0000000000
      7481      2494  TIP3      H1             36.1640894280      -36.2099424159       -9.8453663352  W2        2494            0.0000000000
      7482      2494  TIP3      H2             35.9827494280      -36.6062824159      -11.2951663352  W2        2494            0.0000000000
      7483      2495  TIP3      OH2            36.8075294280      -35.4349524159      -15.1407163352  W2        2495            0.0000000000
      7484      2495  TIP3      H1             37.2816994280      -34.8439624159      -15.7256263352  W2        2495            0.0000000000
      7485      2495  TIP3      H2             36.0901694280      -34.9046624159      -14.7937063352  W2        2495            0.0000000000
      7486      2496  TIP3      OH2            46.9763394280      -31.8964724159       -5.0681363352  W2        2496            0.0000000000
      7487      2496  TIP3      H1             47.2998194280      -32.5275024159       -5.7110863352  W2        2496            0.0000000000
      7488      2496  TIP3      H2             46.5362694280      -32.4312524159       -4.4073963352  W2        2496            0.0000000000
      7489      2497  TIP3      OH2            43.7536294280      -35.9689224159      -10.2840163352  W2        2497            0.0000000000
      7490      2497  TIP3      H1             42.8427394280      -35.9122424159       -9.9954163352  W2        2497            0.0000000000
      7491      2497  TIP3      H2             44.2589194280      -36.0293724159       -9.4732963352  W2        2497            0.0000000000
      7492      2498  TIP3      OH2            38.5819694280      -34.3402924159      -11.4572563352  W2        2498            0.0000000000
      7493      2498  TIP3      H1             37.6927694280      -34.2407424159      -11.7972963352  W2        2498            0.0000000000
      7494      2498  TIP3      H2             38.8784594280      -35.1819924159      -11.8034663352  W2        2498            0.0000000000
      7495      2499  TIP3      OH2            42.2351494280      -34.3400324159      -13.8007963352  W2        2499            0.0000000000
      7496      2499  TIP3      H1             43.1666994280      -34.2110324159      -13.6224863352  W2        2499            0.0000000000
      7497      2499  TIP3      H2             42.0201794280      -33.6706024159      -14.4503263352  W2        2499            0.0000000000
      7498      2500  TIP3      OH2            48.1588194280      -36.7342924159       -7.0198363352  W2        2500            0.0000000000
      7499      2500  TIP3      H1             47.4819794280      -36.6029824159       -6.3558663352  W2        2500            0.0000000000
      7500      2500  TIP3      H2             47.6733094280      -36.8893424159       -7.8300663352  W2        2500            0.0000000000
      7501      2501  TIP3      OH2            40.9091694280      -33.1458124159      -16.2341863352  W2        2501            0.0000000000
      7502      2501  TIP3      H1             40.3666794280      -33.5254324159      -16.9254263352  W2        2501            0.0000000000
      7503      2501  TIP3      H2             41.7426594280      -32.9513424159      -16.6627763352  W2        2501            0.0000000000
      7504      2502  TIP3      OH2            51.4463294280      -21.0627524159       -0.7430763352  W2        2502            0.0000000000
      7505      2502  TIP3      H1             51.6461994280      -20.6385624159       -1.5775463352  W2        2502            0.0000000000
      7506      2502  TIP3      H2             52.1016994280      -20.7189324159       -0.1360363352  W2        2502            0.0000000000
      7507      2503  TIP3      OH2            39.0443094280      -28.5886224159       -1.1350263352  W2        2503            0.0000000000
      7508      2503  TIP3      H1             39.7765494280      -28.3340324159       -0.5735763352  W2        2503            0.0000000000
      7509      2503  TIP3      H2             38.2641794280      -28.3840824159       -0.6194863352  W2        2503            0.0000000000
      7510      2504  TIP3      OH2            45.0735994280      -33.1816224159       -8.3970563352  W2        2504            0.0000000000
      7511      2504  TIP3      H1             45.6379394280      -33.7279624159       -8.9440963352  W2        2504            0.0000000000
      7512      2504  TIP3      H2             44.9259394280      -33.7034324159       -7.6082963352  W2        2504            0.0000000000
      7513      2505  TIP3      OH2            40.0755694280      -37.0450124159      -11.9785763352  W2        2505            0.0000000000
      7514      2505  TIP3      H1             39.7585194280      -37.9474824159      -12.0140363352  W2        2505            0.0000000000
      7515      2505  TIP3      H2             40.8569794280      -37.0432724159      -12.5314163352  W2        2505            0.0000000000
      7516      2506  TIP3      OH2            43.7001894280      -34.7930124159       -5.9830163352  W2        2506            0.0000000000
      7517      2506  TIP3      H1             42.8647194280      -34.3390624159       -5.8727763352  W2        2506            0.0000000000
      7518      2506  TIP3      H2             44.2242494280      -34.5171624159       -5.2310263352  W2        2506            0.0000000000
      7519      2507  TIP3      OH2            44.2444494280      -28.5802424159      -14.2983763352  W2        2507            0.0000000000
      7520      2507  TIP3      H1             43.4995494280      -29.0877124159      -14.6205863352  W2        2507            0.0000000000
      7521      2507  TIP3      H2             44.1101694280      -28.5314424159      -13.3518963352  W2        2507            0.0000000000
      7522      2508  TIP3      OH2            51.3943394280      -29.4474224159       -5.5116163352  W2        2508            0.0000000000
      7523      2508  TIP3      H1             52.0362194280      -28.9907924159       -6.0553963352  W2        2508            0.0000000000
      7524      2508  TIP3      H2             50.5640294280      -29.3341824159       -5.9742063352  W2        2508            0.0000000000
      7525      2509  TIP3      OH2            48.1421294280      -35.7662524159      -16.0991163352  W2        2509            0.0000000000
      7526      2509  TIP3      H1             47.2035494280      -35.6546924159      -16.2502363352  W2        2509            0.0000000000
      7527      2509  TIP3      H2             48.4393394280      -34.9095624159      -15.7925463352  W2        2509            0.0000000000
      7528      2510  TIP3      OH2            45.7636594280      -28.3959124159       -3.0614663352  W2        2510            0.0000000000
      7529      2510  TIP3      H1             45.4182694280      -28.7776724159       -2.2545063352  W2        2510            0.0000000000
      7530      2510  TIP3      H2             45.5636694280      -27.4625524159       -2.9901763352  W2        2510            0.0000000000
      7531      2511  TIP3      OH2            48.8604794280      -33.8989824159      -14.4383763352  W2        2511            0.0000000000
      7532      2511  TIP3      H1             49.7523794280      -34.0364824159      -14.1192563352  W2        2511            0.0000000000
      7533      2511  TIP3      H2             48.9168394280      -33.1083724159      -14.9750263352  W2        2511            0.0000000000
      7534      2512  TIP3      OH2            39.3692794280      -29.2852424159       -8.5285863352  W2        2512            0.0000000000
      7535      2512  TIP3      H1             40.1139994280      -29.2876724159       -9.1299363352  W2        2512            0.0000000000
      7536      2512  TIP3      H2             39.4469394280      -30.1088624159       -8.0470763352  W2        2512            0.0000000000
      7537      2513  TIP3      OH2            46.3698594280      -27.1218124159      -15.2729163352  W2        2513            0.0000000000
      7538      2513  TIP3      H1             46.0746994280      -26.2950224159      -14.8914363352  W2        2513            0.0000000000
      7539      2513  TIP3      H2             45.6668594280      -27.7411224159      -15.0767763352  W2        2513            0.0000000000
      7540      2514  TIP3      OH2            36.3772494280      -30.8245524159       -3.2137363352  W2        2514            0.0000000000
      7541      2514  TIP3      H1             36.6001094280      -31.2425924159       -2.3819863352  W2        2514            0.0000000000
      7542      2514  TIP3      H2             35.7752594280      -31.4370524159       -3.6364563352  W2        2514            0.0000000000
      7543      2515  TIP3      OH2            43.3937394280      -31.3075624159       -1.0007663352  W2        2515            0.0000000000
      7544      2515  TIP3      H1             43.0978194280      -31.4732624159       -1.8958563352  W2        2515            0.0000000000
      7545      2515  TIP3      H2             44.3252594280      -31.5275324159       -1.0113763352  W2        2515            0.0000000000
      7546      2516  TIP3      OH2            48.0140194280      -25.9343624159       -3.1109663352  W2        2516            0.0000000000
      7547      2516  TIP3      H1             47.1134494280      -25.7511024159       -3.3785763352  W2        2516            0.0000000000
      7548      2516  TIP3      H2             48.0481294280      -25.6754324159       -2.1900863352  W2        2516            0.0000000000
      7549      2517  TIP3      OH2            53.7453494280      -33.6895724159      -14.7437063352  W2        2517            0.0000000000
      7550      2517  TIP3      H1             53.1909794280      -34.0857724159      -15.4159563352  W2        2517            0.0000000000
      7551      2517  TIP3      H2             53.8457094280      -32.7790524159      -15.0213763352  W2        2517            0.0000000000
      7552      2518  TIP3      OH2            53.7085494280      -27.8894024159       -1.9065563352  W2        2518            0.0000000000
      7553      2518  TIP3      H1             52.8573994280      -27.6510224159       -2.2739163352  W2        2518            0.0000000000
      7554      2518  TIP3      H2             54.2988894280      -27.9060824159       -2.6598463352  W2        2518            0.0000000000
      7555      2519  TIP3      OH2            52.0405194280      -24.9035324159      -14.2784963352  W2        2519            0.0000000000
      7556      2519  TIP3      H1             51.6676294280      -25.7291524159      -13.9694363352  W2        2519            0.0000000000
      7557      2519  TIP3      H2             52.3178694280      -25.0865924159      -15.1761563352  W2        2519            0.0000000000
      7558      2520  TIP3      OH2            49.2009094280      -30.0955824159       -7.2573063352  W2        2520            0.0000000000
      7559      2520  TIP3      H1             48.2725994280      -30.3273924159       -7.2843763352  W2        2520            0.0000000000
      7560      2520  TIP3      H2             49.6520194280      -30.8726024159       -7.5874263352  W2        2520            0.0000000000
      7561      2521  TIP3      OH2            41.7442194280      -25.7674224159      -11.1244363352  W2        2521            0.0000000000
      7562      2521  TIP3      H1             42.2714394280      -24.9939824159      -11.3245563352  W2        2521            0.0000000000
      7563      2521  TIP3      H2             40.8640694280      -25.5425024159      -11.4260363352  W2        2521            0.0000000000
      7564      2522  TIP3      OH2            37.4989894280      -30.9050124159      -16.5371963352  W2        2522            0.0000000000
      7565      2522  TIP3      H1             38.1149794280      -30.2782924159      -16.1577163352  W2        2522            0.0000000000
      7566      2522  TIP3      H2             36.6372494280      -30.5890324159      -16.2655463352  W2        2522            0.0000000000
      7567      2523  TIP3      OH2            43.1714494280      -28.1044324159      -11.5480063352  W2        2523            0.0000000000
      7568      2523  TIP3      H1             42.9304494280      -27.1789924159      -11.5064763352  W2        2523            0.0000000000
      7569      2523  TIP3      H2             42.4308094280      -28.5633024159      -11.1516163352  W2        2523            0.0000000000
      7570      2524  TIP3      OH2            43.6861094280      -23.9550724159       -5.2328963352  W2        2524            0.0000000000
      7571      2524  TIP3      H1             44.0485794280      -23.1005124159       -5.4664563352  W2        2524            0.0000000000
      7572      2524  TIP3      H2             44.2176294280      -24.2469124159       -4.4922663352  W2        2524            0.0000000000
      7573      2525  TIP3      OH2            41.8545294280      -23.0826724159      -12.0027863352  W2        2525            0.0000000000
      7574      2525  TIP3      H1             40.9045794280      -22.9769324159      -11.9514563352  W2        2525            0.0000000000
      7575      2525  TIP3      H2             42.2063394280      -22.2619324159      -11.6580363352  W2        2525            0.0000000000
      7576      2526  TIP3      OH2            47.2301894280      -27.8560024159       -5.5323363352  W2        2526            0.0000000000
      7577      2526  TIP3      H1             46.8043194280      -28.0838324159       -4.7059363352  W2        2526            0.0000000000
      7578      2526  TIP3      H2             47.8107694280      -28.5948224159       -5.7148063352  W2        2526            0.0000000000
      7579      2527  TIP3      OH2            49.4330794280      -26.9269524159      -16.4584363352  W2        2527            0.0000000000
      7580      2527  TIP3      H1             49.7863894280      -27.3069724159      -15.6540863352  W2        2527            0.0000000000
      7581      2527  TIP3      H2             48.4844294280      -27.0204724159      -16.3715063352  W2        2527            0.0000000000
      7582      2528  TIP3      OH2            49.8886094280      -23.3040524159       -3.0628563352  W2        2528            0.0000000000
      7583      2528  TIP3      H1             49.2869294280      -23.8597624159       -3.5582263352  W2        2528            0.0000000000
      7584      2528  TIP3      H2             50.1699794280      -22.6370724159       -3.6891163352  W2        2528            0.0000000000
      7585      2529  TIP3      OH2            53.9365194280      -22.4477024159      -16.2574163352  W2        2529            0.0000000000
      7586      2529  TIP3      H1             54.6803094280      -21.8616524159      -16.3972563352  W2        2529            0.0000000000
      7587      2529  TIP3      H2             53.2423294280      -21.8791224159      -15.9241763352  W2        2529            0.0000000000
      7588      2530  TIP3      OH2            38.0111994280      -36.0712824159       -3.6555963352  W2        2530            0.0000000000
      7589      2530  TIP3      H1             37.1184294280      -35.7327424159       -3.7231963352  W2        2530            0.0000000000
      7590      2530  TIP3      H2             37.9124794280      -36.9266724159       -3.2375163352  W2        2530            0.0000000000
      7591      2531  TIP3      OH2            50.2990094280      -28.2547524159      -14.2316463352  W2        2531            0.0000000000
      7592      2531  TIP3      H1             50.0217694280      -28.9828224159      -13.6755363352  W2        2531            0.0000000000
      7593      2531  TIP3      H2             51.2263094280      -28.1355524159      -14.0263863352  W2        2531            0.0000000000
      7594      2532  TIP3      OH2            37.6623994280      -24.2668424159       -5.2206563352  W2        2532            0.0000000000
      7595      2532  TIP3      H1             37.8794294280      -25.1986024159       -5.2516863352  W2        2532            0.0000000000
      7596      2532  TIP3      H2             37.9087494280      -23.9923424159       -4.3373763352  W2        2532            0.0000000000
      7597      2533  TIP3      OH2            43.5238594280      -25.8153424159      -18.0114363352  W2        2533            0.0000000000
      7598      2533  TIP3      H1             43.7628394280      -26.5635324159      -18.5585463352  W2        2533            0.0000000000
      7599      2533  TIP3      H2             43.2549894280      -26.2031724159      -17.1786563352  W2        2533            0.0000000000
      7600      2534  TIP3      OH2            42.4609194280      -26.2449624159      -15.5551763352  W2        2534            0.0000000000
      7601      2534  TIP3      H1             42.6077194280      -26.7649824159      -14.7650863352  W2        2534            0.0000000000
      7602      2534  TIP3      H2             42.4580894280      -25.3382024159      -15.2485863352  W2        2534            0.0000000000
      7603      2535  TIP3      OH2            38.9140294280      -28.9926324159      -15.0446363352  W2        2535            0.0000000000
      7604      2535  TIP3      H1             38.2279594280      -28.6403824159      -14.4776663352  W2        2535            0.0000000000
      7605      2535  TIP3      H2             39.4368194280      -28.2296724159      -15.2912063352  W2        2535            0.0000000000
      7606      2536  TIP3      OH2            46.7455394280      -36.3302524159       -4.7657363352  W2        2536            0.0000000000
      7607      2536  TIP3      H1             47.4443294280      -36.2563824159       -4.1157663352  W2        2536            0.0000000000
      7608      2536  TIP3      H2             46.3646794280      -37.1947524159       -4.6114463352  W2        2536            0.0000000000
      7609      2537  TIP3      OH2            47.5300294280      -36.6780824159      -13.6685063352  W2        2537            0.0000000000
      7610      2537  TIP3      H1             47.7498594280      -36.2065424159      -14.4719663352  W2        2537            0.0000000000
      7611      2537  TIP3      H2             48.0884294280      -36.2838224159      -12.9984463352  W2        2537            0.0000000000
      7612      2538  TIP3      OH2            45.1986394280      -24.5476024159      -14.8057563352  W2        2538            0.0000000000
      7613      2538  TIP3      H1             44.3822494280      -24.0506324159      -14.7533263352  W2        2538            0.0000000000
      7614      2538  TIP3      H2             45.7282694280      -24.0722524159      -15.4458763352  W2        2538            0.0000000000
      7615      2539  TIP3      OH2            44.7300194280      -34.9502024159      -12.8336663352  W2        2539            0.0000000000
      7616      2539  TIP3      H1             45.5422794280      -34.4458824159      -12.7874963352  W2        2539            0.0000000000
      7617      2539  TIP3      H2             44.4853194280      -35.0952324159      -11.9197063352  W2        2539            0.0000000000
      7618      2540  TIP3      OH2            45.2656594280      -33.9639324159       -3.6490063352  W2        2540            0.0000000000
      7619      2540  TIP3      H1             45.3846894280      -33.3903924159       -2.8919663352  W2        2540            0.0000000000
      7620      2540  TIP3      H2             45.9211194280      -34.6519924159       -3.5342263352  W2        2540            0.0000000000
      7621      2541  TIP3      OH2            45.6136894280      -37.8689024159      -11.8955563352  W2        2541            0.0000000000
      7622      2541  TIP3      H1             45.2670394280      -37.2518424159      -11.2511263352  W2        2541            0.0000000000
      7623      2541  TIP3      H2             46.2723794280      -37.3683324159      -12.3770063352  W2        2541            0.0000000000
      7624      2542  TIP3      OH2            42.5369494280      -23.5038824159      -14.8240663352  W2        2542            0.0000000000
      7625      2542  TIP3      H1             42.6978194280      -22.7041324159      -15.3248063352  W2        2542            0.0000000000
      7626      2542  TIP3      H2             42.3397294280      -23.1972824159      -13.9390063352  W2        2542            0.0000000000
      7627      2543  TIP3      OH2            41.2713894280      -36.8059624159      -15.2083063352  W2        2543            0.0000000000
      7628      2543  TIP3      H1             41.1878694280      -35.9176524159      -14.8616663352  W2        2543            0.0000000000
      7629      2543  TIP3      H2             42.1614194280      -37.0712924159      -14.9766263352  W2        2543            0.0000000000
      7630      2544  TIP3      OH2            51.4702394280      -36.0569024159       -2.8140363352  W2        2544            0.0000000000
      7631      2544  TIP3      H1             50.5538194280      -35.7947324159       -2.9016663352  W2        2544            0.0000000000
      7632      2544  TIP3      H2             51.8057394280      -36.0600024159       -3.7105063352  W2        2544            0.0000000000
      7633      2545  TIP3      OH2            50.0723394280      -32.3068024159       -8.7183063352  W2        2545            0.0000000000
      7634      2545  TIP3      H1             49.2747794280      -32.7217824159       -9.0468063352  W2        2545            0.0000000000
      7635      2545  TIP3      H2             50.5174494280      -32.9974324159       -8.2272563352  W2        2545            0.0000000000
      7636      2546  TIP3      OH2            39.5299194280      -26.3787424159      -16.1478563352  W2        2546            0.0000000000
      7637      2546  TIP3      H1             40.1220694280      -25.6792624159      -15.8716163352  W2        2546            0.0000000000
      7638      2546  TIP3      H2             39.9892194280      -26.8117924159      -16.8673963352  W2        2546            0.0000000000
      7639      2547  TIP3      OH2            37.8458394280      -33.7144424159      -17.0319163352  W2        2547            0.0000000000
      7640      2547  TIP3      H1             37.8010994280      -32.7751324159      -16.8532163352  W2        2547            0.0000000000
      7641      2547  TIP3      H2             36.9581594280      -33.9499524159      -17.3017063352  W2        2547            0.0000000000
      7642      2548  TIP3      OH2            51.1587994280      -23.0505524159       -7.0959563352  W2        2548            0.0000000000
      7643      2548  TIP3      H1             51.0032294280      -22.3721124159       -7.7530263352  W2        2548            0.0000000000
      7644      2548  TIP3      H2             52.0914394280      -22.9786224159       -6.8928963352  W2        2548            0.0000000000
      7645      2549  TIP3      OH2            38.6540394280      -38.9327824159       -8.3588163352  W2        2549            0.0000000000
      7646      2549  TIP3      H1             38.4250194280      -38.8735324159       -9.2863163352  W2        2549            0.0000000000
      7647      2549  TIP3      H2             38.2113794280      -39.7242324159       -8.0524063352  W2        2549            0.0000000000
      7648      2550  TIP3      OH2            37.5843694280      -24.9920724159      -12.1982363352  W2        2550            0.0000000000
      7649      2550  TIP3      H1             36.7522294280      -24.5198024159      -12.1710963352  W2        2550            0.0000000000
      7650      2550  TIP3      H2             38.1301994280      -24.4823124159      -12.7969263352  W2        2550            0.0000000000
      7651      2551  TIP3      OH2            36.8727394280      -22.3797024159       -0.8684363352  W2        2551            0.0000000000
      7652      2551  TIP3      H1             37.4129594280      -22.5963024159       -0.1085163352  W2        2551            0.0000000000
      7653      2551  TIP3      H2             36.3915394280      -23.1851024159       -1.0581863352  W2        2551            0.0000000000
      7654      2552  TIP3      OH2            41.4700794280      -23.4602624159        0.7519836648  W2        2552            0.0000000000
      7655      2552  TIP3      H1             42.2377994280      -23.9191824159        1.0929036648  W2        2552            0.0000000000
      7656      2552  TIP3      H2             41.4486994280      -23.6862824159       -0.1778963352  W2        2552            0.0000000000
      7657      2553  TIP3      OH2            45.5620394280      -23.9522024159      -17.8728363352  W2        2553            0.0000000000
      7658      2553  TIP3      H1             44.9181394280      -24.5833424159      -17.5514663352  W2        2553            0.0000000000
      7659      2553  TIP3      H2             46.3238694280      -24.4834024159      -18.1044863352  W2        2553            0.0000000000
      7660      2554  TIP3      OH2            48.0469494280      -25.0801524159       -0.5188663352  W2        2554            0.0000000000
      7661      2554  TIP3      H1             47.6958994280      -25.9368524159       -0.2758263352  W2        2554            0.0000000000
      7662      2554  TIP3      H2             48.7732694280      -24.9374824159        0.0880336648  W2        2554            0.0000000000
      7663      2555  TIP3      OH2            50.1663294280      -24.1352124159      -17.6390363352  W2        2555            0.0000000000
      7664      2555  TIP3      H1             50.4493694280      -24.9296924159      -17.1863463352  W2        2555            0.0000000000
      7665      2555  TIP3      H2             50.9061194280      -23.9021124159      -18.1999263352  W2        2555            0.0000000000
      7666      2556  TIP3      OH2            36.7796894280      -28.5692924159        0.0859936648  W2        2556            0.0000000000
      7667      2556  TIP3      H1             36.9237394280      -29.4712224159       -0.2003363352  W2        2556            0.0000000000
      7668      2556  TIP3      H2             36.0074294280      -28.2830824159       -0.4017763352  W2        2556            0.0000000000
      7669      2557  TIP3      OH2            41.1210594280      -28.2257224159      -17.7815463352  W2        2557            0.0000000000
      7670      2557  TIP3      H1             41.1854694280      -29.0197624159      -17.2509063352  W2        2557            0.0000000000
      7671      2557  TIP3      H2             41.7739794280      -28.3444424159      -18.4713463352  W2        2557            0.0000000000
      7672      2558  TIP3      OH2            43.4352994280      -28.5994824159       -0.4813663352  W2        2558            0.0000000000
      7673      2558  TIP3      H1             43.1066794280      -28.3286724159       -1.3386263352  W2        2558            0.0000000000
      7674      2558  TIP3      H2             43.5871194280      -29.5405024159       -0.5688663352  W2        2558            0.0000000000
      7675      2559  TIP3      OH2            46.4733994280      -27.1785524159      -18.0457463352  W2        2559            0.0000000000
      7676      2559  TIP3      H1             46.2048094280      -26.9983424159      -17.1448563352  W2        2559            0.0000000000
      7677      2559  TIP3      H2             46.2669594280      -28.1039324159      -18.1771663352  W2        2559            0.0000000000
      7678      2560  TIP3      OH2            49.1698194280      -28.6837524159       -3.0981363352  W2        2560            0.0000000000
      7679      2560  TIP3      H1             49.9152994280      -28.0953824159       -3.2177363352  W2        2560            0.0000000000
      7680      2560  TIP3      H2             48.4124994280      -28.1017824159       -3.0348263352  W2        2560            0.0000000000
      7681      2561  TIP3      OH2            37.6123394280      -31.3689624159       -0.4940763352  W2        2561            0.0000000000
      7682      2561  TIP3      H1             38.0204594280      -32.2263024159       -0.6150163352  W2        2561            0.0000000000
      7683      2561  TIP3      H2             37.3520994280      -31.3548324159        0.4269536648  W2        2561            0.0000000000
      7684      2562  TIP3      OH2            42.2704394280      -30.2531024159      -15.4757463352  W2        2562            0.0000000000
      7685      2562  TIP3      H1             41.8106394280      -30.7372724159      -14.7898963352  W2        2562            0.0000000000
      7686      2562  TIP3      H2             42.5253094280      -30.9215624159      -16.1116963352  W2        2562            0.0000000000
      7687      2563  TIP3      OH2            41.5593694280      -32.3603924159       -3.1197863352  W2        2563            0.0000000000
      7688      2563  TIP3      H1             40.9409794280      -31.6857324159       -2.8393163352  W2        2563            0.0000000000
      7689      2563  TIP3      H2             41.9034894280      -32.0390024159       -3.9531663352  W2        2563            0.0000000000
      7690      2564  TIP3      OH2            43.3414794280      -32.0099224159      -17.2134263352  W2        2564            0.0000000000
      7691      2564  TIP3      H1             43.1609794280      -32.1648024159      -18.1405963352  W2        2564            0.0000000000
      7692      2564  TIP3      H2             44.2915294280      -31.9020524159      -17.1686363352  W2        2564            0.0000000000
      7693      2565  TIP3      OH2            46.5791894280      -29.8888624159        0.1576936648  W2        2565            0.0000000000
      7694      2565  TIP3      H1             47.5323094280      -29.8049524159        0.1302936648  W2        2565            0.0000000000
      7695      2565  TIP3      H2             46.4186494280      -30.6006824159        0.7771836648  W2        2565            0.0000000000
      7696      2566  TIP3      OH2            52.7313094280      -29.6555024159      -17.7676163352  W2        2566            0.0000000000
      7697      2566  TIP3      H1             52.4577894280      -30.0799524159      -18.5807863352  W2        2566            0.0000000000
      7698      2566  TIP3      H2             52.7707194280      -28.7240524159      -17.9845763352  W2        2566            0.0000000000
      7699      2567  TIP3      OH2            41.8987394280      -35.0053124159       -2.0374763352  W2        2567            0.0000000000
      7700      2567  TIP3      H1             42.0488294280      -35.7341824159       -2.6395063352  W2        2567            0.0000000000
      7701      2567  TIP3      H2             41.9009794280      -34.2281424159       -2.5962563352  W2        2567            0.0000000000
      7702      2568  TIP3      OH2            42.3113094280      -36.6357324159       -4.5447363352  W2        2568            0.0000000000
      7703      2568  TIP3      H1             42.8470594280      -36.1840624159       -5.1968063352  W2        2568            0.0000000000
      7704      2568  TIP3      H2             41.4592694280      -36.7437524159       -4.9673263352  W2        2568            0.0000000000
      7705      2569  TIP3      OH2            43.8931494280      -31.1961124159       -4.3052163352  W2        2569            0.0000000000
      7706      2569  TIP3      H1             44.6436294280      -31.3523624159       -4.8784363352  W2        2569            0.0000000000
      7707      2569  TIP3      H2             43.5539794280      -30.3444524159       -4.5806663352  W2        2569            0.0000000000
      7708      2570  TIP3      OH2            48.3087694280      -33.3809324159        0.7233136648  W2        2570            0.0000000000
      7709      2570  TIP3      H1             48.5008994280      -34.3119924159        0.6117636648  W2        2570            0.0000000000
      7710      2570  TIP3      H2             49.1663994280      -32.9559824159        0.7128536648  W2        2570            0.0000000000
      7711      2571  TIP3      OH2            49.6254894280      -30.5924124159       -1.1994163352  W2        2571            0.0000000000
      7712      2571  TIP3      H1             49.3439894280      -29.8829524159       -1.7770363352  W2        2571            0.0000000000
      7713      2571  TIP3      H2             50.5679194280      -30.6651124159       -1.3502963352  W2        2571            0.0000000000
      7714      2572  TIP3      OH2            40.3773694280      -33.8069624159       -0.1259163352  W2        2572            0.0000000000
      7715      2572  TIP3      H1             39.6102694280      -34.3394824159       -0.3361563352  W2        2572            0.0000000000
      7716      2572  TIP3      H2             41.0562694280      -34.1169224159       -0.7252863352  W2        2572            0.0000000000
      7717      2573  TIP3      OH2            43.1168594280      -39.1791624159       -4.1133763352  W2        2573            0.0000000000
      7718      2573  TIP3      H1             43.0188194280      -38.2328424159       -4.2187563352  W2        2573            0.0000000000
      7719      2573  TIP3      H2             42.3744794280      -39.5517824159       -4.5890263352  W2        2573            0.0000000000
      7720      2574  TIP3      OH2            44.3809094280      -34.8576224159       -0.5495363352  W2        2574            0.0000000000
      7721      2574  TIP3      H1             44.1454494280      -35.0769524159        0.3519536648  W2        2574            0.0000000000
      7722      2574  TIP3      H2             43.5975994280      -35.0645024159       -1.0592863352  W2        2574            0.0000000000
      7723      2575  TIP3      OH2            47.0965694280      -35.7302724159       -1.4741863352  W2        2575            0.0000000000
      7724      2575  TIP3      H1             46.1491094280      -35.6983024159       -1.3418563352  W2        2575            0.0000000000
      7725      2575  TIP3      H2             47.4092394280      -36.3555624159       -0.8203663352  W2        2575            0.0000000000
      7726      2576  TIP3      OH2            48.7307194280      -37.0961624159        0.5310036648  W2        2576            0.0000000000
      7727      2576  TIP3      H1             48.6338994280      -38.0484324159        0.5251936648  W2        2576            0.0000000000
      7728      2576  TIP3      H2             48.4090294280      -36.8274824159        1.3915536648  W2        2576            0.0000000000
      7729      2577  TIP3      OH2            38.5576494280      -35.8865824159       -0.4214463352  W2        2577            0.0000000000
      7730      2577  TIP3      H1             38.7693894280      -36.5929724159       -1.0316963352  W2        2577            0.0000000000
      7731      2577  TIP3      H2             38.4463994280      -36.3239824159        0.4226736648  W2        2577            0.0000000000
      7732      2578  TIP3      OH2            43.3386694280      -39.8854224159       -1.4420963352  W2        2578            0.0000000000
      7733      2578  TIP3      H1             44.0505094280      -40.5252024159       -1.4561863352  W2        2578            0.0000000000
      7734      2578  TIP3      H2             43.2377094280      -39.6185924159       -2.3557863352  W2        2578            0.0000000000
      7735      2579  TIP3      OH2            43.6924194280      -38.2025824159        0.6115336648  W2        2579            0.0000000000
      7736      2579  TIP3      H1             43.5606394280      -38.6782024159       -0.2086163352  W2        2579            0.0000000000
      7737      2579  TIP3      H2             43.0931594280      -37.4582224159        0.5562436648  W2        2579            0.0000000000
      7738      2580  TIP3      OH2            43.2386494280      -21.3195524159      -16.2120663352  W2        2580            0.0000000000
      7739      2580  TIP3      H1             44.1717194280      -21.1616824159      -16.0682263352  W2        2580            0.0000000000
      7740      2580  TIP3      H2             42.9745294280      -20.6442524159      -16.8369163352  W2        2580            0.0000000000
      7741      2581  TIP3      OH2            36.8071394280      -26.6831724159      -16.7292563352  W2        2581            0.0000000000
      7742      2581  TIP3      H1             37.7210594280      -26.6042824159      -16.4558663352  W2        2581            0.0000000000
      7743      2581  TIP3      H2             36.8144494280      -27.3702124159      -17.3956963352  W2        2581            0.0000000000
      7744      2582  TIP3      OH2            35.4561994280      -21.2903224159      -11.6518663352  W2        2582            0.0000000000
      7745      2582  TIP3      H1             34.8089094280      -21.7521524159      -12.1847463352  W2        2582            0.0000000000
      7746      2582  TIP3      H2             35.8106594280      -21.9619924159      -11.0692463352  W2        2582            0.0000000000
      7747      2583  TIP3      OH2            36.3261194280      -23.2096224159       -9.8472463352  W2        2583            0.0000000000
      7748      2583  TIP3      H1             35.9917994280      -24.0898924159       -9.6752263352  W2        2583            0.0000000000
      7749      2583  TIP3      H2             36.5483594280      -22.8641224159       -8.9826863352  W2        2583            0.0000000000
      7750      2584  TIP3      OH2            53.8745994280      -22.3999824159       -6.8667663352  W2        2584            0.0000000000
      7751      2584  TIP3      H1             53.8532694280      -22.2151424159       -5.9278263352  W2        2584            0.0000000000
      7752      2584  TIP3      H2             54.5652194280      -21.8315824159       -7.2076263352  W2        2584            0.0000000000
      7753      2585  TIP3      OH2            53.4378894280      -22.8328724159       -3.9448563352  W2        2585            0.0000000000
      7754      2585  TIP3      H1             52.9507594280      -23.5684624159       -4.3161163352  W2        2585            0.0000000000
      7755      2585  TIP3      H2             53.9871594280      -23.2264824159       -3.2669163352  W2        2585            0.0000000000
      7756      2586  TIP3      OH2            51.8886194280      -27.0430624159        0.6931736648  W2        2586            0.0000000000
      7757      2586  TIP3      H1             51.0227294280      -27.1480924159        1.0874036648  W2        2586            0.0000000000
      7758      2586  TIP3      H2             52.2652094280      -26.2847324159        1.1396436648  W2        2586            0.0000000000
      7759      2587  TIP3      OH2            53.1895894280      -28.7866924159      -13.7925763352  W2        2587            0.0000000000
      7760      2587  TIP3      H1             54.0397294280      -28.3656024159      -13.6654163352  W2        2587            0.0000000000
      7761      2587  TIP3      H2             53.1950994280      -29.5266824159      -13.1854363352  W2        2587            0.0000000000
      7762      2588  TIP3      OH2            53.5841494280      -30.7329524159      -11.9690063352  W2        2588            0.0000000000
      7763      2588  TIP3      H1             52.8576094280      -31.2126924159      -11.5712463352  W2        2588            0.0000000000
      7764      2588  TIP3      H2             54.1654794280      -30.5274824159      -11.2368463352  W2        2588            0.0000000000
      7765      2589  TIP3      OH2            53.3432694280      -27.9482024159       -7.0212463352  W2        2589            0.0000000000
      7766      2589  TIP3      H1             54.1766894280      -28.3262024159       -7.3018863352  W2        2589            0.0000000000
      7767      2589  TIP3      H2             53.4552994280      -27.0050824159       -7.1403363352  W2        2589            0.0000000000
      7768      2590  TIP3      OH2            51.8294994280      -25.0704524159       -4.7144063352  W2        2590            0.0000000000
      7769      2590  TIP3      H1             51.1820294280      -24.7453024159       -4.0888863352  W2        2590            0.0000000000
      7770      2590  TIP3      H2             51.3118994280      -25.5106824159       -5.3885763352  W2        2590            0.0000000000
      7771      2591  TIP3      OH2            53.8524594280      -30.8321024159      -15.5778763352  W2        2591            0.0000000000
      7772      2591  TIP3      H1             53.3305694280      -30.4756924159      -16.2967863352  W2        2591            0.0000000000
      7773      2591  TIP3      H2             53.8193794280      -30.1573224159      -14.8997863352  W2        2591            0.0000000000
      7774      2592  TIP3      OH2            52.2013594280      -33.5925424159      -17.0271663352  W2        2592            0.0000000000
      7775      2592  TIP3      H1             52.2977994280      -32.9258424159      -17.7071963352  W2        2592            0.0000000000
      7776      2592  TIP3      H2             52.0613194280      -34.4079124159      -17.5086163352  W2        2592            0.0000000000
      7777      2593  TIP3      OH2            51.3708294280      -32.2123024159      -11.4061363352  W2        2593            0.0000000000
      7778      2593  TIP3      H1             51.2207094280      -33.1574424159      -11.4263563352  W2        2593            0.0000000000
      7779      2593  TIP3      H2             51.0172794280      -31.9311624159      -10.5622263352  W2        2593            0.0000000000
      7780      2594  TIP3      OH2            36.4060694280      -30.1340824159       -7.3957563352  W2        2594            0.0000000000
      7781      2594  TIP3      H1             36.5903594280      -30.2159124159       -8.3314663352  W2        2594            0.0000000000
      7782      2594  TIP3      H2             37.2553594280      -30.2583824159       -6.9721163352  W2        2594            0.0000000000
      7783      2595  TIP3      OH2            52.2271194280      -30.2419724159       -1.7673063352  W2        2595            0.0000000000
      7784      2595  TIP3      H1             52.8098494280      -30.9767424159       -1.5755863352  W2        2595            0.0000000000
      7785      2595  TIP3      H2             52.7910494280      -29.4699424159       -1.7207263352  W2        2595            0.0000000000
      7786      2596  TIP3      OH2            53.7238294280      -32.3393924159       -1.0827663352  W2        2596            0.0000000000
      7787      2596  TIP3      H1             52.8604994280      -32.7181824159       -1.2482963352  W2        2596            0.0000000000
      7788      2596  TIP3      H2             54.3281994280      -33.0779124159       -1.1571863352  W2        2596            0.0000000000
      7789      2597  TIP3      OH2            51.4487394280      -36.1845624159      -17.9096163352  W2        2597            0.0000000000
      7790      2597  TIP3      H1             52.0593194280      -36.5558824159      -17.2727963352  W2        2597            0.0000000000
      7791      2597  TIP3      H2             50.6118894280      -36.6058724159      -17.7136163352  W2        2597            0.0000000000
      7792      2598  TIP3      OH2            51.0813094280      -34.6297224159      -12.9436263352  W2        2598            0.0000000000
      7793      2598  TIP3      H1             51.3610194280      -35.5366824159      -12.8194563352  W2        2598            0.0000000000
      7794      2598  TIP3      H2             51.8404794280      -34.1955724159      -13.3327063352  W2        2598            0.0000000000
      7795      2599  TIP3      OH2            51.6931394280      -34.0479824159       -7.5077363352  W2        2599            0.0000000000
      7796      2599  TIP3      H1             52.6259394280      -33.8359924159       -7.5421363352  W2        2599            0.0000000000
      7797      2599  TIP3      H2             51.4578894280      -33.9467724159       -6.5854363352  W2        2599            0.0000000000
      7798      2600  TIP3      OH2            51.7223294280      -33.3114524159       -4.7317963352  W2        2600            0.0000000000
      7799      2600  TIP3      H1             50.8794594280      -33.0434124159       -4.3658163352  W2        2600            0.0000000000
      7800      2600  TIP3      H2             52.1647594280      -32.4892624159       -4.9426863352  W2        2600            0.0000000000
      7801      2601  TIP3      OH2            36.0035494280      -34.8635824159       -1.2548763352  W2        2601            0.0000000000
      7802      2601  TIP3      H1             36.9230394280      -34.9857524159       -1.0185663352  W2        2601            0.0000000000
      7803      2601  TIP3      H2             35.5539994280      -35.6136124159       -0.8655263352  W2        2601            0.0000000000
      7804      2602  TIP3      OH2            54.0054894280      -39.3314324159        0.6217036648  W2        2602            0.0000000000
      7805      2602  TIP3      H1             54.3551894280      -39.9850824159        0.0161736648  W2        2602            0.0000000000
      7806      2602  TIP3      H2             54.1524394280      -38.4940224159        0.1819636648  W2        2602            0.0000000000
      7807      2603  TIP3      OH2            51.6947894280      -37.3667924159      -12.8954263352  W2        2603            0.0000000000
      7808      2603  TIP3      H1             51.8772894280      -37.8156424159      -12.0699263352  W2        2603            0.0000000000
      7809      2603  TIP3      H2             51.0950794280      -37.9513524159      -13.3589663352  W2        2603            0.0000000000
      7810      2604  TIP3      OH2            37.2247994280      -36.5514224159       -8.3635863352  W2        2604            0.0000000000
      7811      2604  TIP3      H1             37.6699594280      -37.3431724159       -8.0616163352  W2        2604            0.0000000000
      7812      2604  TIP3      H2             37.6910994280      -35.8349024159       -7.9330263352  W2        2604            0.0000000000
      7813      2605  TIP3      OH2            35.5288294280      -33.5521224159       -7.2945663352  W2        2605            0.0000000000
      7814      2605  TIP3      H1             36.0208094280      -33.7730724159       -8.0853663352  W2        2605            0.0000000000
      7815      2605  TIP3      H2             35.8909194280      -32.7117824159       -7.0136163352  W2        2605            0.0000000000
      7816      2606  TIP3      OH2            53.5252094280      -37.2219724159       -1.0291663352  W2        2606            0.0000000000
      7817      2606  TIP3      H1             52.6077794280      -36.9512624159       -1.0648163352  W2        2606            0.0000000000
      7818      2606  TIP3      H2             53.6481494280      -37.7571324159       -1.8131963352  W2        2606            0.0000000000
      7819      2607  TIP3      OH2            53.5614094280      -37.2989824159      -16.3673963352  W2        2607            0.0000000000
      7820      2607  TIP3      H1             53.9736694280      -38.0204124159      -16.8425963352  W2        2607            0.0000000000
      7821      2607  TIP3      H2             54.2430594280      -36.6295224159      -16.3089663352  W2        2607            0.0000000000
      7822      2608  TIP3      OH2            35.8424794280      -37.2942124159      -13.2403263352  W2        2608            0.0000000000
      7823      2608  TIP3      H1             34.9173194280      -37.0855524159      -13.3697763352  W2        2608            0.0000000000
      7824      2608  TIP3      H2             36.2964694280      -36.8101324159      -13.9300963352  W2        2608            0.0000000000
      7825      2609  TIP3      OH2            50.6131994280      -22.3100424159      -11.2945863352  W2        2609            0.0000000000
      7826      2609  TIP3      H1             51.2654894280      -22.6578324159      -11.9026763352  W2        2609            0.0000000000
      7827      2609  TIP3      H2             51.1235794280      -21.8217224159      -10.6486163352  W2        2609            0.0000000000
      7828      2610  TIP3      OH2            35.8060194280      -38.5563124159       -4.8960763352  W2        2610            0.0000000000
      7829      2610  TIP3      H1             35.1410694280      -38.8022824159       -4.2529863352  W2        2610            0.0000000000
      7830      2610  TIP3      H2             35.3631494280      -37.9342724159       -5.4732763352  W2        2610            0.0000000000
      7831      2611  TIP3      OH2            37.9979494280      -25.3809024159       -0.7514963352  W2        2611            0.0000000000
      7832      2611  TIP3      H1             37.1771994280      -25.2062524159       -1.2120263352  W2        2611            0.0000000000
      7833      2611  TIP3      H2             37.7457294280      -25.4544324159        0.1689436648  W2        2611            0.0000000000
      7834      2612  TIP3      OH2            40.9522394280      -24.4067824159       -4.4930963352  W2        2612            0.0000000000
      7835      2612  TIP3      H1             40.5273494280      -23.5969324159       -4.7756363352  W2        2612            0.0000000000
      7836      2612  TIP3      H2             41.8565194280      -24.3213724159       -4.7951163352  W2        2612            0.0000000000
      7837      2613  TIP3      OH2            45.2633794280      -23.0077824159       -1.5337263352  W2        2613            0.0000000000
      7838      2613  TIP3      H1             45.4481294280      -23.3411724159       -0.6556963352  W2        2613            0.0000000000
      7839      2613  TIP3      H2             46.1098294280      -22.6979224159       -1.8558063352  W2        2613            0.0000000000
      7840      2614  TIP3      OH2            47.6084194280      -21.7218924159       -2.2895863352  W2        2614            0.0000000000
      7841      2614  TIP3      H1             48.2853094280      -22.3546624159       -2.5296663352  W2        2614            0.0000000000
      7842      2614  TIP3      H2             47.9302994280      -21.3208424159       -1.4822563352  W2        2614            0.0000000000
      7843      2615  TIP3      OH2            52.5257994280      -39.1323424159       -3.2100863352  W2        2615            0.0000000000
      7844      2615  TIP3      H1             51.7131494280      -38.8073124159       -3.5976163352  W2        2615            0.0000000000
      7845      2615  TIP3      H2             52.7586494280      -39.8924924159       -3.7431763352  W2        2615            0.0000000000
      7846      2616  TIP3      OH2            38.3539094280      -21.1503924159       -4.4455663352  W2        2616            0.0000000000
      7847      2616  TIP3      H1             37.6335494280      -20.7102924159       -4.8967963352  W2        2616            0.0000000000
      7848      2616  TIP3      H2             37.9883094280      -21.4009224159       -3.5971663352  W2        2616            0.0000000000
      7849      2617  TIP3      OH2            40.8211694280      -21.5500024159       -5.4158463352  W2        2617            0.0000000000
      7850      2617  TIP3      H1             39.9563894280      -21.4781524159       -5.0118363352  W2        2617            0.0000000000
      7851      2617  TIP3      H2             40.7660694280      -21.0032724159       -6.1995963352  W2        2617            0.0000000000
      7852      2618  TIP3      OH2            45.5317294280      -21.6621124159       -6.2402463352  W2        2618            0.0000000000
      7853      2618  TIP3      H1             45.0751294280      -21.1331424159       -6.8944063352  W2        2618            0.0000000000
      7854      2618  TIP3      H2             45.6945294280      -21.0589724159       -5.5150163352  W2        2618            0.0000000000
      7855      2619  TIP3      OH2            47.8593594280      -22.7841524159       -5.2952163352  W2        2619            0.0000000000
      7856      2619  TIP3      H1             46.9547294280      -22.6191324159       -5.5610063352  W2        2619            0.0000000000
      7857      2619  TIP3      H2             48.2882194280      -21.9309324159       -5.3608763352  W2        2619            0.0000000000
      7858      2620  TIP3      OH2            50.4635494280      -21.2142424159       -5.0004363352  W2        2620            0.0000000000
      7859      2620  TIP3      H1             50.2817494280      -20.2983524159       -5.2109463352  W2        2620            0.0000000000
      7860      2620  TIP3      H2             50.6403294280      -21.6245324159       -5.8469763352  W2        2620            0.0000000000
      7861      2621  TIP3      OH2            37.7687194280      -22.5271424159       -7.5353863352  W2        2621            0.0000000000
      7862      2621  TIP3      H1             37.7503194280      -22.9526324159       -6.6781563352  W2        2621            0.0000000000
      7863      2621  TIP3      H2             38.5735094280      -22.8456424159       -7.9441663352  W2        2621            0.0000000000
      7864      2622  TIP3      OH2            39.9100294280      -23.8172724159       -8.8803963352  W2        2622            0.0000000000
      7865      2622  TIP3      H1             39.6910994280      -24.7335324159       -8.7107963352  W2        2622            0.0000000000
      7866      2622  TIP3      H2             40.7342494280      -23.6772324159       -8.4142563352  W2        2622            0.0000000000
      7867      2623  TIP3      OH2            42.4472794280      -23.3473424159       -8.0315963352  W2        2623            0.0000000000
      7868      2623  TIP3      H1             42.6598494280      -24.2354424159       -8.3185063352  W2        2623            0.0000000000
      7869      2623  TIP3      H2             42.5117894280      -23.3815724159       -7.0771963352  W2        2623            0.0000000000
      7870      2624  TIP3      OH2            45.9556494280      -37.6832824159       -8.8872663352  W2        2624            0.0000000000
      7871      2624  TIP3      H1             45.2813294280      -38.3127224159       -8.6316863352  W2        2624            0.0000000000
      7872      2624  TIP3      H2             46.5195694280      -38.1673924159       -9.4904763352  W2        2624            0.0000000000
      7873      2625  TIP3      OH2            51.0983694280      -39.5758824159       -8.7745563352  W2        2625            0.0000000000
      7874      2625  TIP3      H1             51.7021294280      -39.0283424159       -9.2764563352  W2        2625            0.0000000000
      7875      2625  TIP3      H2             50.2285694280      -39.2568424159       -9.0151463352  W2        2625            0.0000000000
      7876      2626  TIP3      OH2            52.8254094280      -38.4370124159      -10.4414663352  W2        2626            0.0000000000
      7877      2626  TIP3      H1             53.4371594280      -38.9514424159      -10.9681063352  W2        2626            0.0000000000
      7878      2626  TIP3      H2             53.2077494280      -37.5598024159      -10.4180263352  W2        2626            0.0000000000
      7879      2627  TIP3      OH2            38.2823994280      -39.0492524159      -11.0652763352  W2        2627            0.0000000000
      7880      2627  TIP3      H1             37.5053794280      -39.2837624159      -11.5726863352  W2        2627            0.0000000000
      7881      2627  TIP3      H2             38.8127594280      -39.8460424159      -11.0564763352  W2        2627            0.0000000000
      7882      2628  TIP3      OH2            37.1187394280      -39.2514424159      -15.2616663352  W2        2628            0.0000000000
      7883      2628  TIP3      H1             37.5578094280      -38.6403924159      -15.8533163352  W2        2628            0.0000000000
      7884      2628  TIP3      H2             36.4849794280      -38.7130324159      -14.7876663352  W2        2628            0.0000000000
      7885      2629  TIP3      OH2            42.8616594280      -39.1225424159      -11.2519663352  W2        2629            0.0000000000
      7886      2629  TIP3      H1             43.7359994280      -38.7341124159      -11.2815363352  W2        2629            0.0000000000
      7887      2629  TIP3      H2             42.7257394280      -39.3377624159      -10.3292463352  W2        2629            0.0000000000
      7888      2630  TIP3      OH2            48.4184994280      -39.0925624159       -9.6027963352  W2        2630            0.0000000000
      7889      2630  TIP3      H1             48.4946594280      -38.9974024159      -10.5521963352  W2        2630            0.0000000000
      7890      2630  TIP3      H2             48.1434194280      -40.0002724159       -9.4738863352  W2        2630            0.0000000000
      7891      2631  TIP3      OH2            49.7717594280      -39.0667824159      -13.9102963352  W2        2631            0.0000000000
      7892      2631  TIP3      H1             49.0688694280      -38.4518624159      -14.1201563352  W2        2631            0.0000000000
      7893      2631  TIP3      H2             49.3268994280      -39.9041124159      -13.7792063352  W2        2631            0.0000000000
      7894      2632  TIP3      OH2            37.0196894280      -23.3032224159      -14.3641563352  W2        2632            0.0000000000
      7895      2632  TIP3      H1             36.3346794280      -23.3413324159      -15.0316463352  W2        2632            0.0000000000
      7896      2632  TIP3      H2             37.0234094280      -22.3904624159      -14.0759463352  W2        2632            0.0000000000
      7897      2633  TIP3      OH2            38.9796494280      -37.3352924159      -16.8192563352  W2        2633            0.0000000000
      7898      2633  TIP3      H1             39.4709894280      -37.9650524159      -17.3467063352  W2        2633            0.0000000000
      7899      2633  TIP3      H2             39.6032794280      -37.0393524159      -16.1561363352  W2        2633            0.0000000000
      7900      2634  TIP3      OH2            44.0056594280      -37.0421424159      -14.3622063352  W2        2634            0.0000000000
      7901      2634  TIP3      H1             44.1837894280      -37.6888224159      -13.6793463352  W2        2634            0.0000000000
      7902      2634  TIP3      H2             43.9522794280      -36.2083724159      -13.8950963352  W2        2634            0.0000000000
      7903      2635  TIP3      OH2            45.8840394280      -22.0937324159      -15.9665363352  W2        2635            0.0000000000
      7904      2635  TIP3      H1             46.7500594280      -21.7269924159      -16.1447163352  W2        2635            0.0000000000
      7905      2635  TIP3      H2             45.6373194280      -22.5329324159      -16.7804563352  W2        2635            0.0000000000
      7906      2636  TIP3      OH2            52.5929994280      -22.5307024159      -13.2874263352  W2        2636            0.0000000000
      7907      2636  TIP3      H1             52.3987094280      -23.2784924159      -13.8524663352  W2        2636            0.0000000000
      7908      2636  TIP3      H2             52.5540094280      -21.7726924159      -13.8706363352  W2        2636            0.0000000000
      7909      2637  TIP3      OH2            38.2401994280      -38.5350624159       -1.5476563352  W2        2637            0.0000000000
      7910      2637  TIP3      H1             37.8740194280      -39.3008024159       -1.1051863352  W2        2637            0.0000000000
      7911      2637  TIP3      H2             39.1530494280      -38.5060424159       -1.2611463352  W2        2637            0.0000000000
      7912      2638  TIP3      OH2            40.2132794280      -39.1846224159       -0.0119463352  W2        2638            0.0000000000
      7913      2638  TIP3      H1             41.1116394280      -39.4586024159       -0.1966063352  W2        2638            0.0000000000
      7914      2638  TIP3      H2             39.8265894280      -39.9270224159        0.4523136648  W2        2638            0.0000000000
      7915      2639  TIP3      OH2            38.8378094280      -22.3831424159      -17.3389463352  W2        2639            0.0000000000
      7916      2639  TIP3      H1             38.5702694280      -22.0968524159      -16.4656363352  W2        2639            0.0000000000
      7917      2639  TIP3      H2             39.6090694280      -22.9292224159      -17.1866963352  W2        2639            0.0000000000
      7918      2640  TIP3      OH2            48.6345094280      -39.8520924159        0.1703336648  W2        2640            0.0000000000
      7919      2640  TIP3      H1             48.7112294280      -40.2780224159        1.0241036648  W2        2640            0.0000000000
      7920      2640  TIP3      H2             49.5281694280      -39.8386224159       -0.1723163352  W2        2640            0.0000000000
      7921      2641  TIP3      OH2            51.8106194280      -23.7794624159       -1.1372463352  W2        2641            0.0000000000
      7922      2641  TIP3      H1             51.0288094280      -23.9656624159       -1.6571863352  W2        2641            0.0000000000
      7923      2641  TIP3      H2             51.7386094280      -22.8500324159       -0.9199963352  W2        2641            0.0000000000
      7924      2642  TIP3      OH2            57.5182894280      -31.0237424159       -6.0947163352  W2        2642            0.0000000000
      7925      2642  TIP3      H1             57.5594994280      -31.6494124159       -5.3714763352  W2        2642            0.0000000000
      7926      2642  TIP3      H2             58.2210594280      -30.3998824159       -5.9126763352  W2        2642            0.0000000000
      7927      2643  TIP3      OH2            58.4415994280      -26.5738524159       -7.5598063352  W2        2643            0.0000000000
      7928      2643  TIP3      H1             58.0721194280      -27.3758024159       -7.9293763352  W2        2643            0.0000000000
      7929      2643  TIP3      H2             59.3827094280      -26.7423624159       -7.5134663352  W2        2643            0.0000000000
      7930      2644  TIP3      OH2            55.0516494280      -32.9135924159      -12.1669263352  W2        2644            0.0000000000
      7931      2644  TIP3      H1             54.6039894280      -32.0677224159      -12.1852763352  W2        2644            0.0000000000
      7932      2644  TIP3      H2             54.4907694280      -33.4931724159      -12.6824163352  W2        2644            0.0000000000
      7933      2645  TIP3      OH2            55.7622594280      -30.7516324159      -10.0411263352  W2        2645            0.0000000000
      7934      2645  TIP3      H1             55.9756094280      -31.5214724159       -9.5138263352  W2        2645            0.0000000000
      7935      2645  TIP3      H2             56.5000194280      -30.6619624159      -10.6443663352  W2        2645            0.0000000000
      7936      2646  TIP3      OH2            56.4549094280      -33.3133524159       -8.9195063352  W2        2646            0.0000000000
      7937      2646  TIP3      H1             57.1085694280      -33.8631824159       -8.4874963352  W2        2646            0.0000000000
      7938      2646  TIP3      H2             56.4788394280      -33.5874524159       -9.8363063352  W2        2646            0.0000000000
      7939      2647  TIP3      OH2            58.2386794280      -34.8999124159       -7.6553463352  W2        2647            0.0000000000
      7940      2647  TIP3      H1             58.8523094280      -34.2671524159       -7.2821063352  W2        2647            0.0000000000
      7941      2647  TIP3      H2             58.7507494280      -35.3724124159       -8.3116563352  W2        2647            0.0000000000
      7942      2648  TIP3      OH2            55.7426094280      -27.4814324159      -13.7511163352  W2        2648            0.0000000000
      7943      2648  TIP3      H1             55.4706994280      -27.2523324159      -14.6398263352  W2        2648            0.0000000000
      7944      2648  TIP3      H2             55.7881794280      -26.6435524159      -13.2905863352  W2        2648            0.0000000000
      7945      2649  TIP3      OH2            58.1556594280      -30.4431324159       -3.2411463352  W2        2649            0.0000000000
      7946      2649  TIP3      H1             58.2259794280      -29.7924524159       -2.5426463352  W2        2649            0.0000000000
      7947      2649  TIP3      H2             57.2648794280      -30.3403824159       -3.5760563352  W2        2649            0.0000000000
      7948      2650  TIP3      OH2            55.0723294280      -28.3767224159       -4.4161463352  W2        2650            0.0000000000
      7949      2650  TIP3      H1             54.5711694280      -28.4047824159       -5.2311763352  W2        2650            0.0000000000
      7950      2650  TIP3      H2             55.0776994280      -29.2824024159       -4.1064163352  W2        2650            0.0000000000
      7951      2651  TIP3      OH2            54.8225994280      -25.5963424159       -7.5321263352  W2        2651            0.0000000000
      7952      2651  TIP3      H1             55.7686594280      -25.7406424159       -7.5511763352  W2        2651            0.0000000000
      7953      2651  TIP3      H2             54.7102294280      -24.8120624159       -6.9950063352  W2        2651            0.0000000000
      7954      2652  TIP3      OH2            58.0668094280      -22.7953824159      -11.3866563352  W2        2652            0.0000000000
      7955      2652  TIP3      H1             58.2188494280      -23.1433424159      -10.5080063352  W2        2652            0.0000000000
      7956      2652  TIP3      H2             57.2158494280      -23.1516524159      -11.6419363352  W2        2652            0.0000000000
      7957      2653  TIP3      OH2            57.3213794280      -27.0531824159       -3.3728663352  W2        2653            0.0000000000
      7958      2653  TIP3      H1             57.5375094280      -27.4146224159       -2.5132863352  W2        2653            0.0000000000
      7959      2653  TIP3      H2             56.4658494280      -27.4278024159       -3.5825163352  W2        2653            0.0000000000
      7960      2654  TIP3      OH2            57.7812394280      -33.2973324159       -4.4152263352  W2        2654            0.0000000000
      7961      2654  TIP3      H1             57.7431794280      -32.8971724159       -3.5465163352  W2        2654            0.0000000000
      7962      2654  TIP3      H2             57.2903494280      -34.1140924159       -4.3249363352  W2        2654            0.0000000000
      7963      2655  TIP3      OH2            54.3893194280      -36.1811524159      -10.5647563352  W2        2655            0.0000000000
      7964      2655  TIP3      H1             55.0200894280      -36.2099424159       -9.8453663352  W2        2655            0.0000000000
      7965      2655  TIP3      H2             54.8387494280      -36.6062824159      -11.2951663352  W2        2655            0.0000000000
      7966      2656  TIP3      OH2            55.6635294280      -35.4349524159      -15.1407163352  W2        2656            0.0000000000
      7967      2656  TIP3      H1             56.1376994280      -34.8439624159      -15.7256263352  W2        2656            0.0000000000
      7968      2656  TIP3      H2             54.9461694280      -34.9046624159      -14.7937063352  W2        2656            0.0000000000
      7969      2657  TIP3      OH2            57.4379694280      -34.3402924159      -11.4572563352  W2        2657            0.0000000000
      7970      2657  TIP3      H1             56.5487694280      -34.2407424159      -11.7972963352  W2        2657            0.0000000000
      7971      2657  TIP3      H2             57.7344594280      -35.1819924159      -11.8034663352  W2        2657            0.0000000000
      7972      2658  TIP3      OH2            57.9003094280      -28.5886224159       -1.1350263352  W2        2658            0.0000000000
      7973      2658  TIP3      H1             58.6325494280      -28.3340324159       -0.5735763352  W2        2658            0.0000000000
      7974      2658  TIP3      H2             57.1201794280      -28.3840824159       -0.6194863352  W2        2658            0.0000000000
      7975      2659  TIP3      OH2            58.2252794280      -29.2852424159       -8.5285863352  W2        2659            0.0000000000
      7976      2659  TIP3      H1             58.9699994280      -29.2876724159       -9.1299363352  W2        2659            0.0000000000
      7977      2659  TIP3      H2             58.3029394280      -30.1088624159       -8.0470763352  W2        2659            0.0000000000
      7978      2660  TIP3      OH2            55.2332494280      -30.8245524159       -3.2137363352  W2        2660            0.0000000000
      7979      2660  TIP3      H1             55.4561094280      -31.2425924159       -2.3819863352  W2        2660            0.0000000000
      7980      2660  TIP3      H2             54.6312594280      -31.4370524159       -3.6364563352  W2        2660            0.0000000000
      7981      2661  TIP3      OH2            56.3549894280      -30.9050124159      -16.5371963352  W2        2661            0.0000000000
      7982      2661  TIP3      H1             56.9709794280      -30.2782924159      -16.1577163352  W2        2661            0.0000000000
      7983      2661  TIP3      H2             55.4932494280      -30.5890324159      -16.2655463352  W2        2661            0.0000000000
      7984      2662  TIP3      OH2            56.8671994280      -36.0712824159       -3.6555963352  W2        2662            0.0000000000
      7985      2662  TIP3      H1             55.9744294280      -35.7327424159       -3.7231963352  W2        2662            0.0000000000
      7986      2662  TIP3      H2             56.7684794280      -36.9266724159       -3.2375163352  W2        2662            0.0000000000
      7987      2663  TIP3      OH2            56.5183994280      -24.2668424159       -5.2206563352  W2        2663            0.0000000000
      7988      2663  TIP3      H1             56.7354294280      -25.1986024159       -5.2516863352  W2        2663            0.0000000000
      7989      2663  TIP3      H2             56.7647494280      -23.9923424159       -4.3373763352  W2        2663            0.0000000000
      7990      2664  TIP3      OH2            57.7700294280      -28.9926324159      -15.0446363352  W2        2664            0.0000000000
      7991      2664  TIP3      H1             57.0839594280      -28.6403824159      -14.4776663352  W2        2664            0.0000000000
      7992      2664  TIP3      H2             58.2928194280      -28.2296724159      -15.2912063352  W2        2664            0.0000000000
      7993      2665  TIP3      OH2            58.3859194280      -26.3787424159      -16.1478563352  W2        2665            0.0000000000
      7994      2665  TIP3      H1             58.9780694280      -25.6792624159      -15.8716163352  W2        2665            0.0000000000
      7995      2665  TIP3      H2             58.8452194280      -26.8117924159      -16.8673963352  W2        2665            0.0000000000
      7996      2666  TIP3      OH2            56.7018394280      -33.7144424159      -17.0319163352  W2        2666            0.0000000000
      7997      2666  TIP3      H1             56.6570994280      -32.7751324159      -16.8532163352  W2        2666            0.0000000000
      7998      2666  TIP3      H2             55.8141594280      -33.9499524159      -17.3017063352  W2        2666            0.0000000000
      7999      2667  TIP3      OH2            57.5100394280      -38.9327824159       -8.3588163352  W2        2667            0.0000000000
      8000      2667  TIP3      H1             57.2810194280      -38.8735324159       -9.2863163352  W2        2667            0.0000000000
      8001      2667  TIP3      H2             57.0673794280      -39.7242324159       -8.0524063352  W2        2667            0.0000000000
      8002      2668  TIP3      OH2            56.4403694280      -24.9920724159      -12.1982363352  W2        2668            0.0000000000
      8003      2668  TIP3      H1             55.6082294280      -24.5198024159      -12.1710963352  W2        2668            0.0000000000
      8004      2668  TIP3      H2             56.9861994280      -24.4823124159      -12.7969263352  W2        2668            0.0000000000
      8005      2669  TIP3      OH2            55.7287394280      -22.3797024159       -0.8684363352  W2        2669            0.0000000000
      8006      2669  TIP3      H1             56.2689594280      -22.5963024159       -0.1085163352  W2        2669            0.0000000000
      8007      2669  TIP3      H2             55.2475394280      -23.1851024159       -1.0581863352  W2        2669            0.0000000000
      8008      2670  TIP3      OH2            55.6356894280      -28.5692924159        0.0859936648  W2        2670            0.0000000000
      8009      2670  TIP3      H1             55.7797394280      -29.4712224159       -0.2003363352  W2        2670            0.0000000000
      8010      2670  TIP3      H2             54.8634294280      -28.2830824159       -0.4017763352  W2        2670            0.0000000000
      8011      2671  TIP3      OH2            56.4683394280      -31.3689624159       -0.4940763352  W2        2671            0.0000000000
      8012      2671  TIP3      H1             56.8764594280      -32.2263024159       -0.6150163352  W2        2671            0.0000000000
      8013      2671  TIP3      H2             56.2080994280      -31.3548324159        0.4269536648  W2        2671            0.0000000000
      8014      2672  TIP3      OH2            57.4136494280      -35.8865824159       -0.4214463352  W2        2672            0.0000000000
      8015      2672  TIP3      H1             57.6253894280      -36.5929724159       -1.0316963352  W2        2672            0.0000000000
      8016      2672  TIP3      H2             57.3023994280      -36.3239824159        0.4226736648  W2        2672            0.0000000000
      8017      2673  TIP3      OH2            55.6631394280      -26.6831724159      -16.7292563352  W2        2673            0.0000000000
      8018      2673  TIP3      H1             56.5770594280      -26.6042824159      -16.4558663352  W2        2673            0.0000000000
      8019      2673  TIP3      H2             55.6704494280      -27.3702124159      -17.3956963352  W2        2673            0.0000000000
      8020      2674  TIP3      OH2            54.3121994280      -21.2903224159      -11.6518663352  W2        2674            0.0000000000
      8021      2674  TIP3      H1             53.6649094280      -21.7521524159      -12.1847463352  W2        2674            0.0000000000
      8022      2674  TIP3      H2             54.6666594280      -21.9619924159      -11.0692463352  W2        2674            0.0000000000
      8023      2675  TIP3      OH2            55.1821194280      -23.2096224159       -9.8472463352  W2        2675            0.0000000000
      8024      2675  TIP3      H1             54.8477994280      -24.0898924159       -9.6752263352  W2        2675            0.0000000000
      8025      2675  TIP3      H2             55.4043594280      -22.8641224159       -8.9826863352  W2        2675            0.0000000000
      8026      2676  TIP3      OH2            55.2620694280      -30.1340824159       -7.3957563352  W2        2676            0.0000000000
      8027      2676  TIP3      H1             55.4463594280      -30.2159124159       -8.3314663352  W2        2676            0.0000000000
      8028      2676  TIP3      H2             56.1113594280      -30.2583824159       -6.9721163352  W2        2676            0.0000000000
      8029      2677  TIP3      OH2            54.8595494280      -34.8635824159       -1.2548763352  W2        2677            0.0000000000
      8030      2677  TIP3      H1             55.7790394280      -34.9857524159       -1.0185663352  W2        2677            0.0000000000
      8031      2677  TIP3      H2             54.4099994280      -35.6136124159       -0.8655263352  W2        2677            0.0000000000
      8032      2678  TIP3      OH2            56.0807994280      -36.5514224159       -8.3635863352  W2        2678            0.0000000000
      8033      2678  TIP3      H1             56.5259594280      -37.3431724159       -8.0616163352  W2        2678            0.0000000000
      8034      2678  TIP3      H2             56.5470994280      -35.8349024159       -7.9330263352  W2        2678            0.0000000000
      8035      2679  TIP3      OH2            54.3848294280      -33.5521224159       -7.2945663352  W2        2679            0.0000000000
      8036      2679  TIP3      H1             54.8768094280      -33.7730724159       -8.0853663352  W2        2679            0.0000000000
      8037      2679  TIP3      H2             54.7469194280      -32.7117824159       -7.0136163352  W2        2679            0.0000000000
      8038      2680  TIP3      OH2            54.6984794280      -37.2942124159      -13.2403263352  W2        2680            0.0000000000
      8039      2680  TIP3      H1             53.7733194280      -37.0855524159      -13.3697763352  W2        2680            0.0000000000
      8040      2680  TIP3      H2             55.1524694280      -36.8101324159      -13.9300963352  W2        2680            0.0000000000
      8041      2681  TIP3      OH2            54.6620194280      -38.5563124159       -4.8960763352  W2        2681            0.0000000000
      8042      2681  TIP3      H1             53.9970694280      -38.8022824159       -4.2529863352  W2        2681            0.0000000000
      8043      2681  TIP3      H2             54.2191494280      -37.9342724159       -5.4732763352  W2        2681            0.0000000000
      8044      2682  TIP3      OH2            56.8539494280      -25.3809024159       -0.7514963352  W2        2682            0.0000000000
      8045      2682  TIP3      H1             56.0331994280      -25.2062524159       -1.2120263352  W2        2682            0.0000000000
      8046      2682  TIP3      H2             56.6017294280      -25.4544324159        0.1689436648  W2        2682            0.0000000000
      8047      2683  TIP3      OH2            57.2099094280      -21.1503924159       -4.4455663352  W2        2683            0.0000000000
      8048      2683  TIP3      H1             56.4895494280      -20.7102924159       -4.8967963352  W2        2683            0.0000000000
      8049      2683  TIP3      H2             56.8443094280      -21.4009224159       -3.5971663352  W2        2683            0.0000000000
      8050      2684  TIP3      OH2            56.6247194280      -22.5271424159       -7.5353863352  W2        2684            0.0000000000
      8051      2684  TIP3      H1             56.6063194280      -22.9526324159       -6.6781563352  W2        2684            0.0000000000
      8052      2684  TIP3      H2             57.4295094280      -22.8456424159       -7.9441663352  W2        2684            0.0000000000
      8053      2685  TIP3      OH2            57.1383994280      -39.0492524159      -11.0652763352  W2        2685            0.0000000000
      8054      2685  TIP3      H1             56.3613794280      -39.2837624159      -11.5726863352  W2        2685            0.0000000000
      8055      2685  TIP3      H2             57.6687594280      -39.8460424159      -11.0564763352  W2        2685            0.0000000000
      8056      2686  TIP3      OH2            55.9747394280      -39.2514424159      -15.2616663352  W2        2686            0.0000000000
      8057      2686  TIP3      H1             56.4138094280      -38.6403924159      -15.8533163352  W2        2686            0.0000000000
      8058      2686  TIP3      H2             55.3409794280      -38.7130324159      -14.7876663352  W2        2686            0.0000000000
      8059      2687  TIP3      OH2            55.8756894280      -23.3032224159      -14.3641563352  W2        2687            0.0000000000
      8060      2687  TIP3      H1             55.1906794280      -23.3413324159      -15.0316463352  W2        2687            0.0000000000
      8061      2687  TIP3      H2             55.8794094280      -22.3904624159      -14.0759463352  W2        2687            0.0000000000
      8062      2688  TIP3      OH2            57.8356494280      -37.3352924159      -16.8192563352  W2        2688            0.0000000000
      8063      2688  TIP3      H1             58.3269894280      -37.9650524159      -17.3467063352  W2        2688            0.0000000000
      8064      2688  TIP3      H2             58.4592794280      -37.0393524159      -16.1561363352  W2        2688            0.0000000000
      8065      2689  TIP3      OH2            57.0961994280      -38.5350624159       -1.5476563352  W2        2689            0.0000000000
      8066      2689  TIP3      H1             56.7300194280      -39.3008024159       -1.1051863352  W2        2689            0.0000000000
      8067      2689  TIP3      H2             58.0090494280      -38.5060424159       -1.2611463352  W2        2689            0.0000000000
      8068      2690  TIP3      OH2            57.6938094280      -22.3831424159      -17.3389463352  W2        2690            0.0000000000
      8069      2690  TIP3      H1             57.4262694280      -22.0968524159      -16.4656363352  W2        2690            0.0000000000
      8070      2690  TIP3      H2             58.4650694280      -22.9292224159      -17.1866963352  W2        2690            0.0000000000
      8071      2691  TIP3      OH2           -46.9193405720      -11.0370224159      -11.1065263352  W2        2691            0.0000000000
      8072      2691  TIP3      H1            -46.8302305720      -10.0932024159      -11.2388163352  W2        2691            0.0000000000
      8073      2691  TIP3      H2            -47.5575805720      -11.3123824159      -11.7645863352  W2        2691            0.0000000000
      8074      2692  TIP3      OH2           -47.9862105720      -11.7819524159       -7.6877063352  W2        2692            0.0000000000
      8075      2692  TIP3      H1            -48.0244605720      -12.4283224159       -6.9827463352  W2        2692            0.0000000000
      8076      2692  TIP3      H2            -48.3085605720      -12.2485124159       -8.4588363352  W2        2692            0.0000000000
      8077      2693  TIP3      OH2           -55.6177105720      -12.1677424159       -6.0947163352  W2        2693            0.0000000000
      8078      2693  TIP3      H1            -55.5765005720      -12.7934124159       -5.3714763352  W2        2693            0.0000000000
      8079      2693  TIP3      H2            -54.9149405720      -11.5438824159       -5.9126763352  W2        2693            0.0000000000
      8080      2694  TIP3      OH2           -44.2801905720       -8.8429124159       -9.3861963352  W2        2694            0.0000000000
      8081      2694  TIP3      H1            -44.7209205720       -9.5633124159       -8.9356363352  W2        2694            0.0000000000
      8082      2694  TIP3      H2            -44.2932205720       -8.1221924159       -8.7564263352  W2        2694            0.0000000000
      8083      2695  TIP3      OH2           -54.6944005720       -7.7178524159       -7.5598063352  W2        2695            0.0000000000
      8084      2695  TIP3      H1            -55.0638805720       -8.5198024159       -7.9293763352  W2        2695            0.0000000000
      8085      2695  TIP3      H2            -53.7532905720       -7.8863624159       -7.5134663352  W2        2695            0.0000000000
      8086      2696  TIP3      OH2           -58.0843505720      -14.0575924159      -12.1669263352  W2        2696            0.0000000000
      8087      2696  TIP3      H1            -58.5320105720      -13.2117224159      -12.1852763352  W2        2696            0.0000000000
      8088      2696  TIP3      H2            -58.6452305720      -14.6371724159      -12.6824163352  W2        2696            0.0000000000
      8089      2697  TIP3      OH2           -57.3737405720      -11.8956324159      -10.0411263352  W2        2697            0.0000000000
      8090      2697  TIP3      H1            -57.1603905720      -12.6654724159       -9.5138263352  W2        2697            0.0000000000
      8091      2697  TIP3      H2            -56.6359805720      -11.8059624159      -10.6443663352  W2        2697            0.0000000000
      8092      2698  TIP3      OH2           -47.1686405720       -3.7387424159       -9.1741563352  W2        2698            0.0000000000
      8093      2698  TIP3      H1            -46.5490005720       -4.4152724159       -9.4472363352  W2        2698            0.0000000000
      8094      2698  TIP3      H2            -47.3769005720       -3.9566624159       -8.2656663352  W2        2698            0.0000000000
      8095      2699  TIP3      OH2           -49.5967705720       -9.3498124159       -7.2816063352  W2        2699            0.0000000000
      8096      2699  TIP3      H1            -49.2929805720      -10.0356724159       -7.8761963352  W2        2699            0.0000000000
      8097      2699  TIP3      H2            -48.8753705720       -9.2309424159       -6.6638063352  W2        2699            0.0000000000
      8098      2700  TIP3      OH2           -40.9337905720      -17.7482824159       -6.4209863352  W2        2700            0.0000000000
      8099      2700  TIP3      H1            -40.8845705720      -17.1381624159       -5.6850763352  W2        2700            0.0000000000
      8100      2700  TIP3      H2            -40.5082805720      -17.2871924159       -7.1438763352  W2        2700            0.0000000000
      8101      2701  TIP3      OH2           -46.4560705720      -14.9555724159       -6.9541263352  W2        2701            0.0000000000
      8102      2701  TIP3      H1            -46.3134805720      -15.9018724159       -6.9339663352  W2        2701            0.0000000000
      8103      2701  TIP3      H2            -46.5621705720      -14.7485924159       -7.8826363352  W2        2701            0.0000000000
      8104      2702  TIP3      OH2           -53.3012405720      -16.8539324159       -9.6816463352  W2        2702            0.0000000000
      8105      2702  TIP3      H1            -53.2581305720      -15.9940824159      -10.1000163352  W2        2702            0.0000000000
      8106      2702  TIP3      H2            -53.7588305720      -17.4064624159      -10.3153263352  W2        2702            0.0000000000
      8107      2703  TIP3      OH2           -45.5789705720      -16.7233724159      -11.2808163352  W2        2703            0.0000000000
      8108      2703  TIP3      H1            -44.9325405720      -17.0520524159      -10.6560563352  W2        2703            0.0000000000
      8109      2703  TIP3      H2            -45.0690305720      -16.2054724159      -11.9036763352  W2        2703            0.0000000000
      8110      2704  TIP3      OH2           -56.6810905720      -14.4573524159       -8.9195063352  W2        2704            0.0000000000
      8111      2704  TIP3      H1            -56.0274305720      -15.0071824159       -8.4874963352  W2        2704            0.0000000000
      8112      2704  TIP3      H2            -56.6571605720      -14.7314524159       -9.8363063352  W2        2704            0.0000000000
      8113      2705  TIP3      OH2           -51.5246405720      -12.9072224159       -9.7043563352  W2        2705            0.0000000000
      8114      2705  TIP3      H1            -50.9085405720      -13.4336824159       -9.1949563352  W2        2705            0.0000000000
      8115      2705  TIP3      H2            -52.1107605720      -13.5473524159      -10.1079963352  W2        2705            0.0000000000
      8116      2706  TIP3      OH2           -40.5423305720      -16.2703624159       -4.1850063352  W2        2706            0.0000000000
      8117      2706  TIP3      H1            -41.2308705720      -15.6122924159       -4.2803463352  W2        2706            0.0000000000
      8118      2706  TIP3      H2            -40.5268705720      -16.4675724159       -3.2484663352  W2        2706            0.0000000000
      8119      2707  TIP3      OH2           -54.4910505720      -17.9360924159       -5.6075663352  W2        2707            0.0000000000
      8120      2707  TIP3      H1            -54.7098805720      -17.4060324159       -6.3739663352  W2        2707            0.0000000000
      8121      2707  TIP3      H2            -55.1589605720      -17.7095424159       -4.9604263352  W2        2707            0.0000000000
      8122      2708  TIP3      OH2           -47.1220705720       -8.4359824159      -12.0636563352  W2        2708            0.0000000000
      8123      2708  TIP3      H1            -47.4175605720       -8.7587524159      -12.9149663352  W2        2708            0.0000000000
      8124      2708  TIP3      H2            -47.4462905720       -7.5363124159      -12.0223963352  W2        2708            0.0000000000
      8125      2709  TIP3      OH2           -51.9219105720      -10.2605224159       -5.3201963352  W2        2709            0.0000000000
      8126      2709  TIP3      H1            -52.6620005720       -9.6623724159       -5.2166763352  W2        2709            0.0000000000
      8127      2709  TIP3      H2            -51.2079605720       -9.7065624159       -5.6358363352  W2        2709            0.0000000000
      8128      2710  TIP3      OH2           -43.8151305720      -17.4324424159       -9.3002263352  W2        2710            0.0000000000
      8129      2710  TIP3      H1            -44.0303305720      -18.1981024159       -8.7676263352  W2        2710            0.0000000000
      8130      2710  TIP3      H2            -43.1593905720      -16.9599824159       -8.7873763352  W2        2710            0.0000000000
      8131      2711  TIP3      OH2           -54.8973205720      -16.0439124159       -7.6553463352  W2        2711            0.0000000000
      8132      2711  TIP3      H1            -54.2836905720      -15.4111524159       -7.2821063352  W2        2711            0.0000000000
      8133      2711  TIP3      H2            -54.3852505720      -16.5164124159       -8.3116563352  W2        2711            0.0000000000
      8134      2712  TIP3      OH2           -53.5144805720       -8.2962224159       -4.5330463352  W2        2712            0.0000000000
      8135      2712  TIP3      H1            -53.5197205720       -7.4168724159       -4.9111163352  W2        2712            0.0000000000
      8136      2712  TIP3      H2            -54.3680705720       -8.3798124159       -4.1080563352  W2        2712            0.0000000000
      8137      2713  TIP3      OH2           -57.3933905720       -8.6254324159      -13.7511163352  W2        2713            0.0000000000
      8138      2713  TIP3      H1            -57.6653005720       -8.3963324159      -14.6398263352  W2        2713            0.0000000000
      8139      2713  TIP3      H2            -57.3478205720       -7.7875524159      -13.2905863352  W2        2713            0.0000000000
      8140      2714  TIP3      OH2           -43.7684205720       -7.0038424159       -7.0382663352  W2        2714            0.0000000000
      8141      2714  TIP3      H1            -44.7100505720       -6.9454524159       -6.8765763352  W2        2714            0.0000000000
      8142      2714  TIP3      H2            -43.4918105720       -6.0977924159       -7.1752963352  W2        2714            0.0000000000
      8143      2715  TIP3      OH2           -43.4677205720      -18.7173124159       -5.6208763352  W2        2715            0.0000000000
      8144      2715  TIP3      H1            -44.2038005720      -18.1066024159       -5.6587463352  W2        2715            0.0000000000
      8145      2715  TIP3      H2            -42.7843205720      -18.3024124159       -6.1472363352  W2        2715            0.0000000000
      8146      2716  TIP3      OH2           -50.4645805720      -20.6305824159       -8.1550763352  W2        2716            0.0000000000
      8147      2716  TIP3      H1            -50.5821605720      -21.5789824159       -8.2092463352  W2        2716            0.0000000000
      8148      2716  TIP3      H2            -51.3195705720      -20.2979724159       -7.8819663352  W2        2716            0.0000000000
      8149      2717  TIP3      OH2           -45.5163005720       -5.2224924159      -10.4131063352  W2        2717            0.0000000000
      8150      2717  TIP3      H1            -45.0910705720       -5.9297024159      -10.8981463352  W2        2717            0.0000000000
      8151      2717  TIP3      H2            -45.1993005720       -4.4212224159      -10.8298863352  W2        2717            0.0000000000
      8152      2718  TIP3      OH2           -44.3566505720       -7.3216424159      -11.9044463352  W2        2718            0.0000000000
      8153      2718  TIP3      H1            -44.6141705720       -8.0116324159      -12.5158563352  W2        2718            0.0000000000
      8154      2718  TIP3      H2            -44.2855705720       -7.7645224159      -11.0588563352  W2        2718            0.0000000000
      8155      2719  TIP3      OH2           -42.6706305720       -8.7549724159       -3.4270963352  W2        2719            0.0000000000
      8156      2719  TIP3      H1            -42.5310005720       -9.3467224159       -4.1663963352  W2        2719            0.0000000000
      8157      2719  TIP3      H2            -42.5033505720       -7.8823824159       -3.7832163352  W2        2719            0.0000000000
      8158      2720  TIP3      OH2           -48.1980905720      -11.7930224159      -13.6544963352  W2        2720            0.0000000000
      8159      2720  TIP3      H1            -48.9095405720      -11.2580524159      -14.0064463352  W2        2720            0.0000000000
      8160      2720  TIP3      H2            -47.5071305720      -11.7378124159      -14.3146063352  W2        2720            0.0000000000
      8161      2721  TIP3      OH2           -48.1441705720      -13.3355924159      -16.6159963352  W2        2721            0.0000000000
      8162      2721  TIP3      H1            -47.4431805720      -13.3129024159      -15.9645963352  W2        2721            0.0000000000
      8163      2721  TIP3      H2            -47.8418805720      -13.9636224159      -17.2720663352  W2        2721            0.0000000000
      8164      2722  TIP3      OH2           -40.8287005720      -12.4151724159       -5.3610563352  W2        2722            0.0000000000
      8165      2722  TIP3      H1            -41.4812905720      -11.7206124159       -5.2719663352  W2        2722            0.0000000000
      8166      2722  TIP3      H2            -40.3636705720      -12.2050824159       -6.1708963352  W2        2722            0.0000000000
      8167      2723  TIP3      OH2           -44.7923205720      -11.5836924159      -12.7029063352  W2        2723            0.0000000000
      8168      2723  TIP3      H1            -45.5242205720      -11.3553224159      -12.1298463352  W2        2723            0.0000000000
      8169      2723  TIP3      H2            -44.3451005720      -12.2974224159      -12.2481563352  W2        2723            0.0000000000
      8170      2724  TIP3      OH2           -44.8949705720      -13.4094324159       -3.6352063352  W2        2724            0.0000000000
      8171      2724  TIP3      H1            -44.8150605720      -12.6459924159       -3.0633563352  W2        2724            0.0000000000
      8172      2724  TIP3      H2            -45.4962005720      -13.1301924159       -4.3256963352  W2        2724            0.0000000000
      8173      2725  TIP3      OH2           -53.1469505720      -10.9530724159      -10.8204063352  W2        2725            0.0000000000
      8174      2725  TIP3      H1            -53.4774305720      -11.3237324159      -11.6387063352  W2        2725            0.0000000000
      8175      2725  TIP3      H2            -52.5585405720      -11.6236724159      -10.4735763352  W2        2725            0.0000000000
      8176      2726  TIP3      OH2           -51.7802005720       -7.5250124159       -8.1391863352  W2        2726            0.0000000000
      8177      2726  TIP3      H1            -51.8750705720       -8.1037024159       -8.8957263352  W2        2726            0.0000000000
      8178      2726  TIP3      H2            -51.0508405720       -7.8964424159       -7.6429063352  W2        2726            0.0000000000
      8179      2727  TIP3      OH2           -52.7804005720      -12.1845124159       -7.1869063352  W2        2727            0.0000000000
      8180      2727  TIP3      H1            -52.2151505720      -12.0630924159       -7.9497863352  W2        2727            0.0000000000
      8181      2727  TIP3      H2            -52.4615105720      -11.5470124159       -6.5480563352  W2        2727            0.0000000000
      8182      2728  TIP3      OH2           -46.4711805720       -6.6813224159       -6.4528563352  W2        2728            0.0000000000
      8183      2728  TIP3      H1            -46.7115205720       -6.0190124159       -5.8049363352  W2        2728            0.0000000000
      8184      2728  TIP3      H2            -46.6693605720       -7.5158024159       -6.0278963352  W2        2728            0.0000000000
      8185      2729  TIP3      OH2           -51.9003305720       -7.7852424159       -2.4697163352  W2        2729            0.0000000000
      8186      2729  TIP3      H1            -52.2115805720       -7.0029224159       -2.0143963352  W2        2729            0.0000000000
      8187      2729  TIP3      H2            -52.5503105720       -7.9383324159       -3.1555163352  W2        2729            0.0000000000
      8188      2730  TIP3      OH2           -45.9213705720      -12.4214024159      -15.0177863352  W2        2730            0.0000000000
      8189      2730  TIP3      H1            -45.3418205720      -12.2713724159      -14.2708963352  W2        2730            0.0000000000
      8190      2730  TIP3      H2            -45.5073705720      -11.9506624159      -15.7411463352  W2        2730            0.0000000000
      8191      2731  TIP3      OH2           -54.9803405720      -11.5871324159       -3.2411463352  W2        2731            0.0000000000
      8192      2731  TIP3      H1            -54.9100205720      -10.9364524159       -2.5426463352  W2        2731            0.0000000000
      8193      2731  TIP3      H2            -55.8711205720      -11.4843824159       -3.5760563352  W2        2731            0.0000000000
      8194      2732  TIP3      OH2           -48.1948805720       -5.6845524159      -11.5824763352  W2        2732            0.0000000000
      8195      2732  TIP3      H1            -47.7211205720       -5.3889224159      -10.8050563352  W2        2732            0.0000000000
      8196      2732  TIP3      H2            -48.7579505720       -4.9463924159      -11.8155163352  W2        2732            0.0000000000
      8197      2733  TIP3      OH2           -53.6607405720       -5.7137424159       -1.7063363352  W2        2733            0.0000000000
      8198      2733  TIP3      H1            -53.6532105720       -5.8497724159       -2.6537863352  W2        2733            0.0000000000
      8199      2733  TIP3      H2            -54.5767005720       -5.8309324159       -1.4543363352  W2        2733            0.0000000000
      8200      2734  TIP3      OH2           -42.2225305720      -20.6713624159      -15.2048163352  W2        2734            0.0000000000
      8201      2734  TIP3      H1            -43.1224605720      -20.5324624159      -14.9097563352  W2        2734            0.0000000000
      8202      2734  TIP3      H2            -41.9706905720      -19.8399024159      -15.6066463352  W2        2734            0.0000000000
      8203      2735  TIP3      OH2           -54.1566805720      -11.8836424159      -13.2311263352  W2        2735            0.0000000000
      8204      2735  TIP3      H1            -54.4485505720      -11.1154724159      -13.7219963352  W2        2735            0.0000000000
      8205      2735  TIP3      H2            -54.8311605720      -12.5430224159      -13.3939863352  W2        2735            0.0000000000
      8206      2736  TIP3      OH2           -41.0333905720       -6.3051224159      -16.8284263352  W2        2736            0.0000000000
      8207      2736  TIP3      H1            -40.9600405720       -5.3661024159      -16.6578963352  W2        2736            0.0000000000
      8208      2736  TIP3      H2            -40.1278805720       -6.6102624159      -16.8846963352  W2        2736            0.0000000000
      8209      2737  TIP3      OH2           -58.0636705720       -9.5207224159       -4.4161463352  W2        2737            0.0000000000
      8210      2737  TIP3      H1            -58.5648305720       -9.5487824159       -5.2311763352  W2        2737            0.0000000000
      8211      2737  TIP3      H2            -58.0583005720      -10.4264024159       -4.1064163352  W2        2737            0.0000000000
      8212      2738  TIP3      OH2           -58.3134005720       -6.7403424159       -7.5321263352  W2        2738            0.0000000000
      8213      2738  TIP3      H1            -57.3673405720       -6.8846424159       -7.5511763352  W2        2738            0.0000000000
      8214      2738  TIP3      H2            -58.4257705720       -5.9560624159       -6.9950063352  W2        2738            0.0000000000
      8215      2739  TIP3      OH2           -40.1155505720       -6.0743724159       -1.8497563352  W2        2739            0.0000000000
      8216      2739  TIP3      H1            -40.1648705720       -7.0295624159       -1.8869963352  W2        2739            0.0000000000
      8217      2739  TIP3      H2            -40.9423205720       -5.8068424159       -1.4483763352  W2        2739            0.0000000000
      8218      2740  TIP3      OH2           -49.1371505720       -6.5004524159       -2.9736163352  W2        2740            0.0000000000
      8219      2740  TIP3      H1            -49.0496905720       -5.6739924159       -2.4987063352  W2        2740            0.0000000000
      8220      2740  TIP3      H2            -50.0006405720       -6.8300724159       -2.7246863352  W2        2740            0.0000000000
      8221      2741  TIP3      OH2           -48.7225705720       -2.7280824159      -13.1675563352  W2        2741            0.0000000000
      8222      2741  TIP3      H1            -48.7979705720       -2.8493624159      -14.1140363352  W2        2741            0.0000000000
      8223      2741  TIP3      H2            -48.6897005720       -1.7788124159      -13.0490963352  W2        2741            0.0000000000
      8224      2742  TIP3      OH2           -55.0691905720       -3.9393824159      -11.3866563352  W2        2742            0.0000000000
      8225      2742  TIP3      H1            -54.9171505720       -4.2873424159      -10.5080063352  W2        2742            0.0000000000
      8226      2742  TIP3      H2            -55.9201505720       -4.2956524159      -11.6419363352  W2        2742            0.0000000000
      8227      2743  TIP3      OH2           -45.6209705720       -3.5740624159      -16.1653163352  W2        2743            0.0000000000
      8228      2743  TIP3      H1            -45.2461305720       -4.3184524159      -16.6360563352  W2        2743            0.0000000000
      8229      2743  TIP3      H2            -45.6166005720       -3.8440024159      -15.2469863352  W2        2743            0.0000000000
      8230      2744  TIP3      OH2           -45.9521605720       -3.6483524159      -13.4160963352  W2        2744            0.0000000000
      8231      2744  TIP3      H1            -46.8871805720       -3.5481624159      -13.2373963352  W2        2744            0.0000000000
      8232      2744  TIP3      H2            -45.6719705720       -4.3577524159      -12.8377763352  W2        2744            0.0000000000
      8233      2745  TIP3      OH2           -42.9635705720      -14.5811224159       -1.3695363352  W2        2745            0.0000000000
      8234      2745  TIP3      H1            -43.3708905720      -14.1005624159       -2.0902063352  W2        2745            0.0000000000
      8235      2745  TIP3      H2            -42.9230005720      -15.4865224159       -1.6774563352  W2        2745            0.0000000000
      8236      2746  TIP3      OH2           -55.8146205720       -8.1971824159       -3.3728663352  W2        2746            0.0000000000
      8237      2746  TIP3      H1            -55.5984905720       -8.5586224159       -2.5132863352  W2        2746            0.0000000000
      8238      2746  TIP3      H2            -56.6701505720       -8.5718024159       -3.5825163352  W2        2746            0.0000000000
      8239      2747  TIP3      OH2           -53.1958205720      -19.7271324159       -7.3774463352  W2        2747            0.0000000000
      8240      2747  TIP3      H1            -54.0574505720      -19.8143124159       -7.7851563352  W2        2747            0.0000000000
      8241      2747  TIP3      H2            -53.2182505720      -18.8711224159       -6.9496863352  W2        2747            0.0000000000
      8242      2748  TIP3      OH2           -48.5330405720      -20.0050924159       -4.0027463352  W2        2748            0.0000000000
      8243      2748  TIP3      H1            -48.1127305720      -20.4203824159       -3.2496863352  W2        2748            0.0000000000
      8244      2748  TIP3      H2            -49.4660805720      -20.1837624159       -3.8855463352  W2        2748            0.0000000000
      8245      2749  TIP3      OH2           -45.2065505720      -16.2495724159       -3.1492963352  W2        2749            0.0000000000
      8246      2749  TIP3      H1            -45.7206005720      -16.3753524159       -2.3516963352  W2        2749            0.0000000000
      8247      2749  TIP3      H2            -45.3620805720      -15.3372624159       -3.3936763352  W2        2749            0.0000000000
      8248      2750  TIP3      OH2           -44.4440605720      -11.3885724159      -17.3879963352  W2        2750            0.0000000000
      8249      2750  TIP3      H1            -44.4019805720      -11.6111824159      -18.3179963352  W2        2750            0.0000000000
      8250      2750  TIP3      H2            -43.5948505720      -10.9898624159      -17.1980063352  W2        2750            0.0000000000
      8251      2751  TIP3      OH2           -48.8713105720      -17.5127524159      -16.7176663352  W2        2751            0.0000000000
      8252      2751  TIP3      H1            -49.1248305720      -17.4935924159      -15.7948563352  W2        2751            0.0000000000
      8253      2751  TIP3      H2            -49.1281005720      -18.3842124159      -17.0190463352  W2        2751            0.0000000000
      8254      2752  TIP3      OH2           -53.1048105720      -14.7616824159       -6.2824263352  W2        2752            0.0000000000
      8255      2752  TIP3      H1            -53.7466005720      -14.8019524159       -5.5734163352  W2        2752            0.0000000000
      8256      2752  TIP3      H2            -53.0676105720      -13.8352124159       -6.5201263352  W2        2752            0.0000000000
      8257      2753  TIP3      OH2           -53.1079005720      -14.5406724159      -11.3704263352  W2        2753            0.0000000000
      8258      2753  TIP3      H1            -54.0006105720      -14.8810624159      -11.4290463352  W2        2753            0.0000000000
      8259      2753  TIP3      H2            -52.6572405720      -14.9175824159      -12.1261063352  W2        2753            0.0000000000
      8260      2754  TIP3      OH2           -47.5723505720      -14.1246424159      -12.5533463352  W2        2754            0.0000000000
      8261      2754  TIP3      H1            -47.9813205720      -13.3097824159      -12.8448663352  W2        2754            0.0000000000
      8262      2754  TIP3      H2            -46.8517305720      -14.2646324159      -13.1676363352  W2        2754            0.0000000000
      8263      2755  TIP3      OH2           -48.4701905720      -13.9490024159       -1.0652763352  W2        2755            0.0000000000
      8264      2755  TIP3      H1            -49.0328105720      -14.6538424159       -0.7444963352  W2        2755            0.0000000000
      8265      2755  TIP3      H2            -47.6438505720      -14.0698124159       -0.5975163352  W2        2755            0.0000000000
      8266      2756  TIP3      OH2           -46.5675805720      -14.6786024159       -9.7393763352  W2        2756            0.0000000000
      8267      2756  TIP3      H1            -46.7631305720      -14.0729224159      -10.4543163352  W2        2756            0.0000000000
      8268      2756  TIP3      H2            -46.3863205720      -15.5120824159      -10.1737463352  W2        2756            0.0000000000
      8269      2757  TIP3      OH2           -55.3547605720      -14.4413324159       -4.4152263352  W2        2757            0.0000000000
      8270      2757  TIP3      H1            -55.3928205720      -14.0411724159       -3.5465163352  W2        2757            0.0000000000
      8271      2757  TIP3      H2            -55.8456505720      -15.2580924159       -4.3249363352  W2        2757            0.0000000000
      8272      2758  TIP3      OH2           -51.9890205720      -17.0671024159      -17.6166263352  W2        2758            0.0000000000
      8273      2758  TIP3      H1            -52.4199505720      -17.5120924159      -16.8868863352  W2        2758            0.0000000000
      8274      2758  TIP3      H2            -52.7071505720      -16.6954724159      -18.1288763352  W2        2758            0.0000000000
      8275      2759  TIP3      OH2           -58.7466805720      -17.3251524159      -10.5647563352  W2        2759            0.0000000000
      8276      2759  TIP3      H1            -58.1159105720      -17.3539424159       -9.8453663352  W2        2759            0.0000000000
      8277      2759  TIP3      H2            -58.2972505720      -17.7502824159      -11.2951663352  W2        2759            0.0000000000
      8278      2760  TIP3      OH2           -57.4724705720      -16.5789524159      -15.1407163352  W2        2760            0.0000000000
      8279      2760  TIP3      H1            -56.9983005720      -15.9879624159      -15.7256263352  W2        2760            0.0000000000
      8280      2760  TIP3      H2            -58.1898305720      -16.0486624159      -14.7937063352  W2        2760            0.0000000000
      8281      2761  TIP3      OH2           -47.3036605720      -13.0404724159       -5.0681363352  W2        2761            0.0000000000
      8282      2761  TIP3      H1            -46.9801805720      -13.6715024159       -5.7110863352  W2        2761            0.0000000000
      8283      2761  TIP3      H2            -47.7437305720      -13.5752524159       -4.4073963352  W2        2761            0.0000000000
      8284      2762  TIP3      OH2           -50.5263705720      -17.1129224159      -10.2840163352  W2        2762            0.0000000000
      8285      2762  TIP3      H1            -51.4372605720      -17.0562424159       -9.9954163352  W2        2762            0.0000000000
      8286      2762  TIP3      H2            -50.0210805720      -17.1733724159       -9.4732963352  W2        2762            0.0000000000
      8287      2763  TIP3      OH2           -55.6980305720      -15.4842924159      -11.4572563352  W2        2763            0.0000000000
      8288      2763  TIP3      H1            -56.5872305720      -15.3847424159      -11.7972963352  W2        2763            0.0000000000
      8289      2763  TIP3      H2            -55.4015405720      -16.3259924159      -11.8034663352  W2        2763            0.0000000000
      8290      2764  TIP3      OH2           -52.0448505720      -15.4840324159      -13.8007963352  W2        2764            0.0000000000
      8291      2764  TIP3      H1            -51.1133005720      -15.3550324159      -13.6224863352  W2        2764            0.0000000000
      8292      2764  TIP3      H2            -52.2598205720      -14.8146024159      -14.4503263352  W2        2764            0.0000000000
      8293      2765  TIP3      OH2           -46.1211805720      -17.8782924159       -7.0198363352  W2        2765            0.0000000000
      8294      2765  TIP3      H1            -46.7980205720      -17.7469824159       -6.3558663352  W2        2765            0.0000000000
      8295      2765  TIP3      H2            -46.6066905720      -18.0333424159       -7.8300663352  W2        2765            0.0000000000
      8296      2766  TIP3      OH2           -53.3708305720      -14.2898124159      -16.2341863352  W2        2766            0.0000000000
      8297      2766  TIP3      H1            -53.9133205720      -14.6694324159      -16.9254263352  W2        2766            0.0000000000
      8298      2766  TIP3      H2            -52.5373405720      -14.0953424159      -16.6627763352  W2        2766            0.0000000000
      8299      2767  TIP3      OH2           -42.8336705720       -2.2067524159       -0.7430763352  W2        2767            0.0000000000
      8300      2767  TIP3      H1            -42.6338005720       -1.7825624159       -1.5775463352  W2        2767            0.0000000000
      8301      2767  TIP3      H2            -42.1783005720       -1.8629324159       -0.1360363352  W2        2767            0.0000000000
      8302      2768  TIP3      OH2           -55.2356905720       -9.7326224159       -1.1350263352  W2        2768            0.0000000000
      8303      2768  TIP3      H1            -54.5034505720       -9.4780324159       -0.5735763352  W2        2768            0.0000000000
      8304      2768  TIP3      H2            -56.0158205720       -9.5280824159       -0.6194863352  W2        2768            0.0000000000
      8305      2769  TIP3      OH2           -49.2064005720      -14.3256224159       -8.3970563352  W2        2769            0.0000000000
      8306      2769  TIP3      H1            -48.6420605720      -14.8719624159       -8.9440963352  W2        2769            0.0000000000
      8307      2769  TIP3      H2            -49.3540605720      -14.8474324159       -7.6082963352  W2        2769            0.0000000000
      8308      2770  TIP3      OH2           -54.2044305720      -18.1890124159      -11.9785763352  W2        2770            0.0000000000
      8309      2770  TIP3      H1            -54.5214805720      -19.0914824159      -12.0140363352  W2        2770            0.0000000000
      8310      2770  TIP3      H2            -53.4230205720      -18.1872724159      -12.5314163352  W2        2770            0.0000000000
      8311      2771  TIP3      OH2           -50.5798105720      -15.9370124159       -5.9830163352  W2        2771            0.0000000000
      8312      2771  TIP3      H1            -51.4152805720      -15.4830624159       -5.8727763352  W2        2771            0.0000000000
      8313      2771  TIP3      H2            -50.0557505720      -15.6611624159       -5.2310263352  W2        2771            0.0000000000
      8314      2772  TIP3      OH2           -50.0355505720       -9.7242424159      -14.2983763352  W2        2772            0.0000000000
      8315      2772  TIP3      H1            -50.7804505720      -10.2317124159      -14.6205863352  W2        2772            0.0000000000
      8316      2772  TIP3      H2            -50.1698305720       -9.6754424159      -13.3518963352  W2        2772            0.0000000000
      8317      2773  TIP3      OH2           -42.8856605720      -10.5914224159       -5.5116163352  W2        2773            0.0000000000
      8318      2773  TIP3      H1            -42.2437805720      -10.1347924159       -6.0553963352  W2        2773            0.0000000000
      8319      2773  TIP3      H2            -43.7159705720      -10.4781824159       -5.9742063352  W2        2773            0.0000000000
      8320      2774  TIP3      OH2           -46.1378705720      -16.9102524159      -16.0991163352  W2        2774            0.0000000000
      8321      2774  TIP3      H1            -47.0764505720      -16.7986924159      -16.2502363352  W2        2774            0.0000000000
      8322      2774  TIP3      H2            -45.8406605720      -16.0535624159      -15.7925463352  W2        2774            0.0000000000
      8323      2775  TIP3      OH2           -48.5163405720       -9.5399124159       -3.0614663352  W2        2775            0.0000000000
      8324      2775  TIP3      H1            -48.8617305720       -9.9216724159       -2.2545063352  W2        2775            0.0000000000
      8325      2775  TIP3      H2            -48.7163305720       -8.6065524159       -2.9901763352  W2        2775            0.0000000000
      8326      2776  TIP3      OH2           -45.4195205720      -15.0429824159      -14.4383763352  W2        2776            0.0000000000
      8327      2776  TIP3      H1            -44.5276205720      -15.1804824159      -14.1192563352  W2        2776            0.0000000000
      8328      2776  TIP3      H2            -45.3631605720      -14.2523724159      -14.9750263352  W2        2776            0.0000000000
      8329      2777  TIP3      OH2           -54.9107205720      -10.4292424159       -8.5285863352  W2        2777            0.0000000000
      8330      2777  TIP3      H1            -54.1660005720      -10.4316724159       -9.1299363352  W2        2777            0.0000000000
      8331      2777  TIP3      H2            -54.8330605720      -11.2528624159       -8.0470763352  W2        2777            0.0000000000
      8332      2778  TIP3      OH2           -47.9101405720       -8.2658124159      -15.2729163352  W2        2778            0.0000000000
      8333      2778  TIP3      H1            -48.2053005720       -7.4390224159      -14.8914363352  W2        2778            0.0000000000
      8334      2778  TIP3      H2            -48.6131405720       -8.8851224159      -15.0767763352  W2        2778            0.0000000000
      8335      2779  TIP3      OH2           -57.9027505720      -11.9685524159       -3.2137363352  W2        2779            0.0000000000
      8336      2779  TIP3      H1            -57.6798905720      -12.3865924159       -2.3819863352  W2        2779            0.0000000000
      8337      2779  TIP3      H2            -58.5047405720      -12.5810524159       -3.6364563352  W2        2779            0.0000000000
      8338      2780  TIP3      OH2           -50.8862605720      -12.4515624159       -1.0007663352  W2        2780            0.0000000000
      8339      2780  TIP3      H1            -51.1821805720      -12.6172624159       -1.8958563352  W2        2780            0.0000000000
      8340      2780  TIP3      H2            -49.9547405720      -12.6715324159       -1.0113763352  W2        2780            0.0000000000
      8341      2781  TIP3      OH2           -46.2659805720       -7.0783624159       -3.1109663352  W2        2781            0.0000000000
      8342      2781  TIP3      H1            -47.1665505720       -6.8951024159       -3.3785763352  W2        2781            0.0000000000
      8343      2781  TIP3      H2            -46.2318705720       -6.8194324159       -2.1900863352  W2        2781            0.0000000000
      8344      2782  TIP3      OH2           -40.5346505720      -14.8335724159      -14.7437063352  W2        2782            0.0000000000
      8345      2782  TIP3      H1            -41.0890205720      -15.2297724159      -15.4159563352  W2        2782            0.0000000000
      8346      2782  TIP3      H2            -40.4342905720      -13.9230524159      -15.0213763352  W2        2782            0.0000000000
      8347      2783  TIP3      OH2           -40.5714505720       -9.0334024159       -1.9065563352  W2        2783            0.0000000000
      8348      2783  TIP3      H1            -41.4226005720       -8.7950224159       -2.2739163352  W2        2783            0.0000000000
      8349      2783  TIP3      H2            -39.9811105720       -9.0500824159       -2.6598463352  W2        2783            0.0000000000
      8350      2784  TIP3      OH2           -42.2394805720       -6.0475324159      -14.2784963352  W2        2784            0.0000000000
      8351      2784  TIP3      H1            -42.6123705720       -6.8731524159      -13.9694363352  W2        2784            0.0000000000
      8352      2784  TIP3      H2            -41.9621305720       -6.2305924159      -15.1761563352  W2        2784            0.0000000000
      8353      2785  TIP3      OH2           -45.0790905720      -11.2395824159       -7.2573063352  W2        2785            0.0000000000
      8354      2785  TIP3      H1            -46.0074005720      -11.4713924159       -7.2843763352  W2        2785            0.0000000000
      8355      2785  TIP3      H2            -44.6279805720      -12.0166024159       -7.5874263352  W2        2785            0.0000000000
      8356      2786  TIP3      OH2           -52.5357805720       -6.9114224159      -11.1244363352  W2        2786            0.0000000000
      8357      2786  TIP3      H1            -52.0085605720       -6.1379824159      -11.3245563352  W2        2786            0.0000000000
      8358      2786  TIP3      H2            -53.4159305720       -6.6865024159      -11.4260363352  W2        2786            0.0000000000
      8359      2787  TIP3      OH2           -56.7810105720      -12.0490124159      -16.5371963352  W2        2787            0.0000000000
      8360      2787  TIP3      H1            -56.1650205720      -11.4222924159      -16.1577163352  W2        2787            0.0000000000
      8361      2787  TIP3      H2            -57.6427505720      -11.7330324159      -16.2655463352  W2        2787            0.0000000000
      8362      2788  TIP3      OH2           -51.1085505720       -9.2484324159      -11.5480063352  W2        2788            0.0000000000
      8363      2788  TIP3      H1            -51.3495505720       -8.3229924159      -11.5064763352  W2        2788            0.0000000000
      8364      2788  TIP3      H2            -51.8491905720       -9.7073024159      -11.1516163352  W2        2788            0.0000000000
      8365      2789  TIP3      OH2           -50.5938905720       -5.0990724159       -5.2328963352  W2        2789            0.0000000000
      8366      2789  TIP3      H1            -50.2314205720       -4.2445124159       -5.4664563352  W2        2789            0.0000000000
      8367      2789  TIP3      H2            -50.0623705720       -5.3909124159       -4.4922663352  W2        2789            0.0000000000
      8368      2790  TIP3      OH2           -52.4254705720       -4.2266724159      -12.0027863352  W2        2790            0.0000000000
      8369      2790  TIP3      H1            -53.3754205720       -4.1209324159      -11.9514563352  W2        2790            0.0000000000
      8370      2790  TIP3      H2            -52.0736605720       -3.4059324159      -11.6580363352  W2        2790            0.0000000000
      8371      2791  TIP3      OH2           -47.0498105720       -9.0000024159       -5.5323363352  W2        2791            0.0000000000
      8372      2791  TIP3      H1            -47.4756805720       -9.2278324159       -4.7059363352  W2        2791            0.0000000000
      8373      2791  TIP3      H2            -46.4692305720       -9.7388224159       -5.7148063352  W2        2791            0.0000000000
      8374      2792  TIP3      OH2           -44.8469205720       -8.0709524159      -16.4584363352  W2        2792            0.0000000000
      8375      2792  TIP3      H1            -44.4936105720       -8.4509724159      -15.6540863352  W2        2792            0.0000000000
      8376      2792  TIP3      H2            -45.7955705720       -8.1644724159      -16.3715063352  W2        2792            0.0000000000
      8377      2793  TIP3      OH2           -44.3913905720       -4.4480524159       -3.0628563352  W2        2793            0.0000000000
      8378      2793  TIP3      H1            -44.9930705720       -5.0037624159       -3.5582263352  W2        2793            0.0000000000
      8379      2793  TIP3      H2            -44.1100205720       -3.7810724159       -3.6891163352  W2        2793            0.0000000000
      8380      2794  TIP3      OH2           -40.3434805720       -3.5917024159      -16.2574163352  W2        2794            0.0000000000
      8381      2794  TIP3      H1            -39.5996905720       -3.0056524159      -16.3972563352  W2        2794            0.0000000000
      8382      2794  TIP3      H2            -41.0376705720       -3.0231224159      -15.9241763352  W2        2794            0.0000000000
      8383      2795  TIP3      OH2           -56.2688005720      -17.2152824159       -3.6555963352  W2        2795            0.0000000000
      8384      2795  TIP3      H1            -57.1615705720      -16.8767424159       -3.7231963352  W2        2795            0.0000000000
      8385      2795  TIP3      H2            -56.3675205720      -18.0706724159       -3.2375163352  W2        2795            0.0000000000
      8386      2796  TIP3      OH2           -43.9809905720       -9.3987524159      -14.2316463352  W2        2796            0.0000000000
      8387      2796  TIP3      H1            -44.2582305720      -10.1268224159      -13.6755363352  W2        2796            0.0000000000
      8388      2796  TIP3      H2            -43.0536905720       -9.2795524159      -14.0263863352  W2        2796            0.0000000000
      8389      2797  TIP3      OH2           -56.6176005720       -5.4108424159       -5.2206563352  W2        2797            0.0000000000
      8390      2797  TIP3      H1            -56.4005705720       -6.3426024159       -5.2516863352  W2        2797            0.0000000000
      8391      2797  TIP3      H2            -56.3712505720       -5.1363424159       -4.3373763352  W2        2797            0.0000000000
      8392      2798  TIP3      OH2           -50.7561405720       -6.9593424159      -18.0114363352  W2        2798            0.0000000000
      8393      2798  TIP3      H1            -50.5171605720       -7.7075324159      -18.5585463352  W2        2798            0.0000000000
      8394      2798  TIP3      H2            -51.0250105720       -7.3471724159      -17.1786563352  W2        2798            0.0000000000
      8395      2799  TIP3      OH2           -51.8190805720       -7.3889624159      -15.5551763352  W2        2799            0.0000000000
      8396      2799  TIP3      H1            -51.6722805720       -7.9089824159      -14.7650863352  W2        2799            0.0000000000
      8397      2799  TIP3      H2            -51.8219105720       -6.4822024159      -15.2485863352  W2        2799            0.0000000000
      8398      2800  TIP3      OH2           -55.3659705720      -10.1366324159      -15.0446363352  W2        2800            0.0000000000
      8399      2800  TIP3      H1            -56.0520405720       -9.7843824159      -14.4776663352  W2        2800            0.0000000000
      8400      2800  TIP3      H2            -54.8431805720       -9.3736724159      -15.2912063352  W2        2800            0.0000000000
      8401      2801  TIP3      OH2           -47.5344605720      -17.4742524159       -4.7657363352  W2        2801            0.0000000000
      8402      2801  TIP3      H1            -46.8356705720      -17.4003824159       -4.1157663352  W2        2801            0.0000000000
      8403      2801  TIP3      H2            -47.9153205720      -18.3387524159       -4.6114463352  W2        2801            0.0000000000
      8404      2802  TIP3      OH2           -46.7499705720      -17.8220824159      -13.6685063352  W2        2802            0.0000000000
      8405      2802  TIP3      H1            -46.5301405720      -17.3505424159      -14.4719663352  W2        2802            0.0000000000
      8406      2802  TIP3      H2            -46.1915705720      -17.4278224159      -12.9984463352  W2        2802            0.0000000000
      8407      2803  TIP3      OH2           -49.0813605720       -5.6916024159      -14.8057563352  W2        2803            0.0000000000
      8408      2803  TIP3      H1            -49.8977505720       -5.1946324159      -14.7533263352  W2        2803            0.0000000000
      8409      2803  TIP3      H2            -48.5517305720       -5.2162524159      -15.4458763352  W2        2803            0.0000000000
      8410      2804  TIP3      OH2           -49.5499805720      -16.0942024159      -12.8336663352  W2        2804            0.0000000000
      8411      2804  TIP3      H1            -48.7377205720      -15.5898824159      -12.7874963352  W2        2804            0.0000000000
      8412      2804  TIP3      H2            -49.7946805720      -16.2392324159      -11.9197063352  W2        2804            0.0000000000
      8413      2805  TIP3      OH2           -49.0143405720      -15.1079324159       -3.6490063352  W2        2805            0.0000000000
      8414      2805  TIP3      H1            -48.8953105720      -14.5343924159       -2.8919663352  W2        2805            0.0000000000
      8415      2805  TIP3      H2            -48.3588805720      -15.7959924159       -3.5342263352  W2        2805            0.0000000000
      8416      2806  TIP3      OH2           -48.6663105720      -19.0129024159      -11.8955563352  W2        2806            0.0000000000
      8417      2806  TIP3      H1            -49.0129605720      -18.3958424159      -11.2511263352  W2        2806            0.0000000000
      8418      2806  TIP3      H2            -48.0076205720      -18.5123324159      -12.3770063352  W2        2806            0.0000000000
      8419      2807  TIP3      OH2           -51.7430505720       -4.6478824159      -14.8240663352  W2        2807            0.0000000000
      8420      2807  TIP3      H1            -51.5821805720       -3.8481324159      -15.3248063352  W2        2807            0.0000000000
      8421      2807  TIP3      H2            -51.9402705720       -4.3412824159      -13.9390063352  W2        2807            0.0000000000
      8422      2808  TIP3      OH2           -53.0086105720      -17.9499624159      -15.2083063352  W2        2808            0.0000000000
      8423      2808  TIP3      H1            -53.0921305720      -17.0616524159      -14.8616663352  W2        2808            0.0000000000
      8424      2808  TIP3      H2            -52.1185805720      -18.2152924159      -14.9766263352  W2        2808            0.0000000000
      8425      2809  TIP3      OH2           -42.8097605720      -17.2009024159       -2.8140363352  W2        2809            0.0000000000
      8426      2809  TIP3      H1            -43.7261805720      -16.9387324159       -2.9016663352  W2        2809            0.0000000000
      8427      2809  TIP3      H2            -42.4742605720      -17.2040024159       -3.7105063352  W2        2809            0.0000000000
      8428      2810  TIP3      OH2           -44.2076605720      -13.4508024159       -8.7183063352  W2        2810            0.0000000000
      8429      2810  TIP3      H1            -45.0052205720      -13.8657824159       -9.0468063352  W2        2810            0.0000000000
      8430      2810  TIP3      H2            -43.7625505720      -14.1414324159       -8.2272563352  W2        2810            0.0000000000
      8431      2811  TIP3      OH2           -54.7500805720       -7.5227424159      -16.1478563352  W2        2811            0.0000000000
      8432      2811  TIP3      H1            -54.1579305720       -6.8232624159      -15.8716163352  W2        2811            0.0000000000
      8433      2811  TIP3      H2            -54.2907805720       -7.9557924159      -16.8673963352  W2        2811            0.0000000000
      8434      2812  TIP3      OH2           -56.4341605720      -14.8584424159      -17.0319163352  W2        2812            0.0000000000
      8435      2812  TIP3      H1            -56.4789005720      -13.9191324159      -16.8532163352  W2        2812            0.0000000000
      8436      2812  TIP3      H2            -57.3218405720      -15.0939524159      -17.3017063352  W2        2812            0.0000000000
      8437      2813  TIP3      OH2           -43.1212005720       -4.1945524159       -7.0959563352  W2        2813            0.0000000000
      8438      2813  TIP3      H1            -43.2767705720       -3.5161124159       -7.7530263352  W2        2813            0.0000000000
      8439      2813  TIP3      H2            -42.1885605720       -4.1226224159       -6.8928963352  W2        2813            0.0000000000
      8440      2814  TIP3      OH2           -55.6259605720      -20.0767824159       -8.3588163352  W2        2814            0.0000000000
      8441      2814  TIP3      H1            -55.8549805720      -20.0175324159       -9.2863163352  W2        2814            0.0000000000
      8442      2814  TIP3      H2            -56.0686205720      -20.8682324159       -8.0524063352  W2        2814            0.0000000000
      8443      2815  TIP3      OH2           -56.6956305720       -6.1360724159      -12.1982363352  W2        2815            0.0000000000
      8444      2815  TIP3      H1            -57.5277705720       -5.6638024159      -12.1710963352  W2        2815            0.0000000000
      8445      2815  TIP3      H2            -56.1498005720       -5.6263124159      -12.7969263352  W2        2815            0.0000000000
      8446      2816  TIP3      OH2           -57.4072605720       -3.5237024159       -0.8684363352  W2        2816            0.0000000000
      8447      2816  TIP3      H1            -56.8670405720       -3.7403024159       -0.1085163352  W2        2816            0.0000000000
      8448      2816  TIP3      H2            -57.8884605720       -4.3291024159       -1.0581863352  W2        2816            0.0000000000
      8449      2817  TIP3      OH2           -52.8099205720       -4.6042624159        0.7519836648  W2        2817            0.0000000000
      8450      2817  TIP3      H1            -52.0422005720       -5.0631824159        1.0929036648  W2        2817            0.0000000000
      8451      2817  TIP3      H2            -52.8313005720       -4.8302824159       -0.1778963352  W2        2817            0.0000000000
      8452      2818  TIP3      OH2           -48.7179605720       -5.0962024159      -17.8728363352  W2        2818            0.0000000000
      8453      2818  TIP3      H1            -49.3618605720       -5.7273424159      -17.5514663352  W2        2818            0.0000000000
      8454      2818  TIP3      H2            -47.9561305720       -5.6274024159      -18.1044863352  W2        2818            0.0000000000
      8455      2819  TIP3      OH2           -46.2330505720       -6.2241524159       -0.5188663352  W2        2819            0.0000000000
      8456      2819  TIP3      H1            -46.5841005720       -7.0808524159       -0.2758263352  W2        2819            0.0000000000
      8457      2819  TIP3      H2            -45.5067305720       -6.0814824159        0.0880336648  W2        2819            0.0000000000
      8458      2820  TIP3      OH2           -44.1136705720       -5.2792124159      -17.6390363352  W2        2820            0.0000000000
      8459      2820  TIP3      H1            -43.8306305720       -6.0736924159      -17.1863463352  W2        2820            0.0000000000
      8460      2820  TIP3      H2            -43.3738805720       -5.0461124159      -18.1999263352  W2        2820            0.0000000000
      8461      2821  TIP3      OH2           -57.5003105720       -9.7132924159        0.0859936648  W2        2821            0.0000000000
      8462      2821  TIP3      H1            -57.3562605720      -10.6152224159       -0.2003363352  W2        2821            0.0000000000
      8463      2821  TIP3      H2            -58.2725705720       -9.4270824159       -0.4017763352  W2        2821            0.0000000000
      8464      2822  TIP3      OH2           -53.1589405720       -9.3697224159      -17.7815463352  W2        2822            0.0000000000
      8465      2822  TIP3      H1            -53.0945305720      -10.1637624159      -17.2509063352  W2        2822            0.0000000000
      8466      2822  TIP3      H2            -52.5060205720       -9.4884424159      -18.4713463352  W2        2822            0.0000000000
      8467      2823  TIP3      OH2           -50.8447005720       -9.7434824159       -0.4813663352  W2        2823            0.0000000000
      8468      2823  TIP3      H1            -51.1733205720       -9.4726724159       -1.3386263352  W2        2823            0.0000000000
      8469      2823  TIP3      H2            -50.6928805720      -10.6845024159       -0.5688663352  W2        2823            0.0000000000
      8470      2824  TIP3      OH2           -47.8066005720       -8.3225524159      -18.0457463352  W2        2824            0.0000000000
      8471      2824  TIP3      H1            -48.0751905720       -8.1423424159      -17.1448563352  W2        2824            0.0000000000
      8472      2824  TIP3      H2            -48.0130405720       -9.2479324159      -18.1771663352  W2        2824            0.0000000000
      8473      2825  TIP3      OH2           -45.1101805720       -9.8277524159       -3.0981363352  W2        2825            0.0000000000
      8474      2825  TIP3      H1            -44.3647005720       -9.2393824159       -3.2177363352  W2        2825            0.0000000000
      8475      2825  TIP3      H2            -45.8675005720       -9.2457824159       -3.0348263352  W2        2825            0.0000000000
      8476      2826  TIP3      OH2           -56.6676605720      -12.5129624159       -0.4940763352  W2        2826            0.0000000000
      8477      2826  TIP3      H1            -56.2595405720      -13.3703024159       -0.6150163352  W2        2826            0.0000000000
      8478      2826  TIP3      H2            -56.9279005720      -12.4988324159        0.4269536648  W2        2826            0.0000000000
      8479      2827  TIP3      OH2           -52.0095605720      -11.3971024159      -15.4757463352  W2        2827            0.0000000000
      8480      2827  TIP3      H1            -52.4693605720      -11.8812724159      -14.7898963352  W2        2827            0.0000000000
      8481      2827  TIP3      H2            -51.7546905720      -12.0655624159      -16.1116963352  W2        2827            0.0000000000
      8482      2828  TIP3      OH2           -52.7206305720      -13.5043924159       -3.1197863352  W2        2828            0.0000000000
      8483      2828  TIP3      H1            -53.3390205720      -12.8297324159       -2.8393163352  W2        2828            0.0000000000
      8484      2828  TIP3      H2            -52.3765105720      -13.1830024159       -3.9531663352  W2        2828            0.0000000000
      8485      2829  TIP3      OH2           -50.9385205720      -13.1539224159      -17.2134263352  W2        2829            0.0000000000
      8486      2829  TIP3      H1            -51.1190205720      -13.3088024159      -18.1405963352  W2        2829            0.0000000000
      8487      2829  TIP3      H2            -49.9884705720      -13.0460524159      -17.1686363352  W2        2829            0.0000000000
      8488      2830  TIP3      OH2           -47.7008105720      -11.0328624159        0.1576936648  W2        2830            0.0000000000
      8489      2830  TIP3      H1            -46.7476905720      -10.9489524159        0.1302936648  W2        2830            0.0000000000
      8490      2830  TIP3      H2            -47.8613505720      -11.7446824159        0.7771836648  W2        2830            0.0000000000
      8491      2831  TIP3      OH2           -41.5486905720      -10.7995024159      -17.7676163352  W2        2831            0.0000000000
      8492      2831  TIP3      H1            -41.8222105720      -11.2239524159      -18.5807863352  W2        2831            0.0000000000
      8493      2831  TIP3      H2            -41.5092805720       -9.8680524159      -17.9845763352  W2        2831            0.0000000000
      8494      2832  TIP3      OH2           -52.3812605720      -16.1493124159       -2.0374763352  W2        2832            0.0000000000
      8495      2832  TIP3      H1            -52.2311705720      -16.8781824159       -2.6395063352  W2        2832            0.0000000000
      8496      2832  TIP3      H2            -52.3790205720      -15.3721424159       -2.5962563352  W2        2832            0.0000000000
      8497      2833  TIP3      OH2           -51.9686905720      -17.7797324159       -4.5447363352  W2        2833            0.0000000000
      8498      2833  TIP3      H1            -51.4329405720      -17.3280624159       -5.1968063352  W2        2833            0.0000000000
      8499      2833  TIP3      H2            -52.8207305720      -17.8877524159       -4.9673263352  W2        2833            0.0000000000
      8500      2834  TIP3      OH2           -50.3868505720      -12.3401124159       -4.3052163352  W2        2834            0.0000000000
      8501      2834  TIP3      H1            -49.6363705720      -12.4963624159       -4.8784363352  W2        2834            0.0000000000
      8502      2834  TIP3      H2            -50.7260205720      -11.4884524159       -4.5806663352  W2        2834            0.0000000000
      8503      2835  TIP3      OH2           -45.9712305720      -14.5249324159        0.7233136648  W2        2835            0.0000000000
      8504      2835  TIP3      H1            -45.7791005720      -15.4559924159        0.6117636648  W2        2835            0.0000000000
      8505      2835  TIP3      H2            -45.1136005720      -14.0999824159        0.7128536648  W2        2835            0.0000000000
      8506      2836  TIP3      OH2           -44.6545105720      -11.7364124159       -1.1994163352  W2        2836            0.0000000000
      8507      2836  TIP3      H1            -44.9360105720      -11.0269524159       -1.7770363352  W2        2836            0.0000000000
      8508      2836  TIP3      H2            -43.7120805720      -11.8091124159       -1.3502963352  W2        2836            0.0000000000
      8509      2837  TIP3      OH2           -53.9026305720      -14.9509624159       -0.1259163352  W2        2837            0.0000000000
      8510      2837  TIP3      H1            -54.6697305720      -15.4834824159       -0.3361563352  W2        2837            0.0000000000
      8511      2837  TIP3      H2            -53.2237305720      -15.2609224159       -0.7252863352  W2        2837            0.0000000000
      8512      2838  TIP3      OH2           -51.1631405720      -20.3231624159       -4.1133763352  W2        2838            0.0000000000
      8513      2838  TIP3      H1            -51.2611805720      -19.3768424159       -4.2187563352  W2        2838            0.0000000000
      8514      2838  TIP3      H2            -51.9055205720      -20.6957824159       -4.5890263352  W2        2838            0.0000000000
      8515      2839  TIP3      OH2           -49.8990905720      -16.0016224159       -0.5495363352  W2        2839            0.0000000000
      8516      2839  TIP3      H1            -50.1345505720      -16.2209524159        0.3519536648  W2        2839            0.0000000000
      8517      2839  TIP3      H2            -50.6824005720      -16.2085024159       -1.0592863352  W2        2839            0.0000000000
      8518      2840  TIP3      OH2           -47.1834305720      -16.8742724159       -1.4741863352  W2        2840            0.0000000000
      8519      2840  TIP3      H1            -48.1308905720      -16.8423024159       -1.3418563352  W2        2840            0.0000000000
      8520      2840  TIP3      H2            -46.8707605720      -17.4995624159       -0.8203663352  W2        2840            0.0000000000
      8521      2841  TIP3      OH2           -45.5492805720      -18.2401624159        0.5310036648  W2        2841            0.0000000000
      8522      2841  TIP3      H1            -45.6461005720      -19.1924324159        0.5251936648  W2        2841            0.0000000000
      8523      2841  TIP3      H2            -45.8709705720      -17.9714824159        1.3915536648  W2        2841            0.0000000000
      8524      2842  TIP3      OH2           -55.7223505720      -17.0305824159       -0.4214463352  W2        2842            0.0000000000
      8525      2842  TIP3      H1            -55.5106105720      -17.7369724159       -1.0316963352  W2        2842            0.0000000000
      8526      2842  TIP3      H2            -55.8336005720      -17.4679824159        0.4226736648  W2        2842            0.0000000000
      8527      2843  TIP3      OH2           -50.9413305720      -21.0294224159       -1.4420963352  W2        2843            0.0000000000
      8528      2843  TIP3      H1            -50.2294905720      -21.6692024159       -1.4561863352  W2        2843            0.0000000000
      8529      2843  TIP3      H2            -51.0422905720      -20.7625924159       -2.3557863352  W2        2843            0.0000000000
      8530      2844  TIP3      OH2           -50.5875805720      -19.3465824159        0.6115336648  W2        2844            0.0000000000
      8531      2844  TIP3      H1            -50.7193605720      -19.8222024159       -0.2086163352  W2        2844            0.0000000000
      8532      2844  TIP3      H2            -51.1868405720      -18.6022224159        0.5562436648  W2        2844            0.0000000000
      8533      2845  TIP3      OH2           -51.0413505720       -2.4635524159      -16.2120663352  W2        2845            0.0000000000
      8534      2845  TIP3      H1            -50.1082805720       -2.3056824159      -16.0682263352  W2        2845            0.0000000000
      8535      2845  TIP3      H2            -51.3054705720       -1.7882524159      -16.8369163352  W2        2845            0.0000000000
      8536      2846  TIP3      OH2           -57.4728605720       -7.8271724159      -16.7292563352  W2        2846            0.0000000000
      8537      2846  TIP3      H1            -56.5589405720       -7.7482824159      -16.4558663352  W2        2846            0.0000000000
      8538      2846  TIP3      H2            -57.4655505720       -8.5142124159      -17.3956963352  W2        2846            0.0000000000
      8539      2847  TIP3      OH2           -58.8238005720       -2.4343224159      -11.6518663352  W2        2847            0.0000000000
      8540      2847  TIP3      H1            -59.4710905720       -2.8961524159      -12.1847463352  W2        2847            0.0000000000
      8541      2847  TIP3      H2            -58.4693405720       -3.1059924159      -11.0692463352  W2        2847            0.0000000000
      8542      2848  TIP3      OH2           -57.9538805720       -4.3536224159       -9.8472463352  W2        2848            0.0000000000
      8543      2848  TIP3      H1            -58.2882005720       -5.2338924159       -9.6752263352  W2        2848            0.0000000000
      8544      2848  TIP3      H2            -57.7316405720       -4.0081224159       -8.9826863352  W2        2848            0.0000000000
      8545      2849  TIP3      OH2           -40.4054005720       -3.5439824159       -6.8667663352  W2        2849            0.0000000000
      8546      2849  TIP3      H1            -40.4267305720       -3.3591424159       -5.9278263352  W2        2849            0.0000000000
      8547      2849  TIP3      H2            -39.7147805720       -2.9755824159       -7.2076263352  W2        2849            0.0000000000
      8548      2850  TIP3      OH2           -40.8421105720       -3.9768724159       -3.9448563352  W2        2850            0.0000000000
      8549      2850  TIP3      H1            -41.3292405720       -4.7124624159       -4.3161163352  W2        2850            0.0000000000
      8550      2850  TIP3      H2            -40.2928405720       -4.3704824159       -3.2669163352  W2        2850            0.0000000000
      8551      2851  TIP3      OH2           -42.3913805720       -8.1870624159        0.6931736648  W2        2851            0.0000000000
      8552      2851  TIP3      H1            -43.2572705720       -8.2920924159        1.0874036648  W2        2851            0.0000000000
      8553      2851  TIP3      H2            -42.0147905720       -7.4287324159        1.1396436648  W2        2851            0.0000000000
      8554      2852  TIP3      OH2           -41.0904105720       -9.9306924159      -13.7925763352  W2        2852            0.0000000000
      8555      2852  TIP3      H1            -40.2402705720       -9.5096024159      -13.6654163352  W2        2852            0.0000000000
      8556      2852  TIP3      H2            -41.0849005720      -10.6706824159      -13.1854363352  W2        2852            0.0000000000
      8557      2853  TIP3      OH2           -40.6958505720      -11.8769524159      -11.9690063352  W2        2853            0.0000000000
      8558      2853  TIP3      H1            -41.4223905720      -12.3566924159      -11.5712463352  W2        2853            0.0000000000
      8559      2853  TIP3      H2            -40.1145205720      -11.6714824159      -11.2368463352  W2        2853            0.0000000000
      8560      2854  TIP3      OH2           -40.9367305720       -9.0922024159       -7.0212463352  W2        2854            0.0000000000
      8561      2854  TIP3      H1            -40.1033105720       -9.4702024159       -7.3018863352  W2        2854            0.0000000000
      8562      2854  TIP3      H2            -40.8247005720       -8.1490824159       -7.1403363352  W2        2854            0.0000000000
      8563      2855  TIP3      OH2           -42.4505005720       -6.2144524159       -4.7144063352  W2        2855            0.0000000000
      8564      2855  TIP3      H1            -43.0979705720       -5.8893024159       -4.0888863352  W2        2855            0.0000000000
      8565      2855  TIP3      H2            -42.9681005720       -6.6546824159       -5.3885763352  W2        2855            0.0000000000
      8566      2856  TIP3      OH2           -40.4275405720      -11.9761024159      -15.5778763352  W2        2856            0.0000000000
      8567      2856  TIP3      H1            -40.9494305720      -11.6196924159      -16.2967863352  W2        2856            0.0000000000
      8568      2856  TIP3      H2            -40.4606205720      -11.3013224159      -14.8997863352  W2        2856            0.0000000000
      8569      2857  TIP3      OH2           -42.0786405720      -14.7365424159      -17.0271663352  W2        2857            0.0000000000
      8570      2857  TIP3      H1            -41.9822005720      -14.0698424159      -17.7071963352  W2        2857            0.0000000000
      8571      2857  TIP3      H2            -42.2186805720      -15.5519124159      -17.5086163352  W2        2857            0.0000000000
      8572      2858  TIP3      OH2           -42.9091705720      -13.3563024159      -11.4061363352  W2        2858            0.0000000000
      8573      2858  TIP3      H1            -43.0592905720      -14.3014424159      -11.4263563352  W2        2858            0.0000000000
      8574      2858  TIP3      H2            -43.2627205720      -13.0751624159      -10.5622263352  W2        2858            0.0000000000
      8575      2859  TIP3      OH2           -57.8739305720      -11.2780824159       -7.3957563352  W2        2859            0.0000000000
      8576      2859  TIP3      H1            -57.6896405720      -11.3599124159       -8.3314663352  W2        2859            0.0000000000
      8577      2859  TIP3      H2            -57.0246405720      -11.4023824159       -6.9721163352  W2        2859            0.0000000000
      8578      2860  TIP3      OH2           -42.0528805720      -11.3859724159       -1.7673063352  W2        2860            0.0000000000
      8579      2860  TIP3      H1            -41.4701505720      -12.1207424159       -1.5755863352  W2        2860            0.0000000000
      8580      2860  TIP3      H2            -41.4889505720      -10.6139424159       -1.7207263352  W2        2860            0.0000000000
      8581      2861  TIP3      OH2           -40.5561705720      -13.4833924159       -1.0827663352  W2        2861            0.0000000000
      8582      2861  TIP3      H1            -41.4195005720      -13.8621824159       -1.2482963352  W2        2861            0.0000000000
      8583      2861  TIP3      H2            -39.9518005720      -14.2219124159       -1.1571863352  W2        2861            0.0000000000
      8584      2862  TIP3      OH2           -42.8312605720      -17.3285624159      -17.9096163352  W2        2862            0.0000000000
      8585      2862  TIP3      H1            -42.2206805720      -17.6998824159      -17.2727963352  W2        2862            0.0000000000
      8586      2862  TIP3      H2            -43.6681105720      -17.7498724159      -17.7136163352  W2        2862            0.0000000000
      8587      2863  TIP3      OH2           -43.1986905720      -15.7737224159      -12.9436263352  W2        2863            0.0000000000
      8588      2863  TIP3      H1            -42.9189805720      -16.6806824159      -12.8194563352  W2        2863            0.0000000000
      8589      2863  TIP3      H2            -42.4395205720      -15.3395724159      -13.3327063352  W2        2863            0.0000000000
      8590      2864  TIP3      OH2           -42.5868605720      -15.1919824159       -7.5077363352  W2        2864            0.0000000000
      8591      2864  TIP3      H1            -41.6540605720      -14.9799924159       -7.5421363352  W2        2864            0.0000000000
      8592      2864  TIP3      H2            -42.8221105720      -15.0907724159       -6.5854363352  W2        2864            0.0000000000
      8593      2865  TIP3      OH2           -42.5576705720      -14.4554524159       -4.7317963352  W2        2865            0.0000000000
      8594      2865  TIP3      H1            -43.4005405720      -14.1874124159       -4.3658163352  W2        2865            0.0000000000
      8595      2865  TIP3      H2            -42.1152405720      -13.6332624159       -4.9426863352  W2        2865            0.0000000000
      8596      2866  TIP3      OH2           -58.2764505720      -16.0075824159       -1.2548763352  W2        2866            0.0000000000
      8597      2866  TIP3      H1            -57.3569605720      -16.1297524159       -1.0185663352  W2        2866            0.0000000000
      8598      2866  TIP3      H2            -58.7260005720      -16.7576124159       -0.8655263352  W2        2866            0.0000000000
      8599      2867  TIP3      OH2           -40.2745105720      -20.4754324159        0.6217036648  W2        2867            0.0000000000
      8600      2867  TIP3      H1            -39.9248105720      -21.1290824159        0.0161736648  W2        2867            0.0000000000
      8601      2867  TIP3      H2            -40.1275605720      -19.6380224159        0.1819636648  W2        2867            0.0000000000
      8602      2868  TIP3      OH2           -42.5852105720      -18.5107924159      -12.8954263352  W2        2868            0.0000000000
      8603      2868  TIP3      H1            -42.4027105720      -18.9596424159      -12.0699263352  W2        2868            0.0000000000
      8604      2868  TIP3      H2            -43.1849205720      -19.0953524159      -13.3589663352  W2        2868            0.0000000000
      8605      2869  TIP3      OH2           -57.0552005720      -17.6954224159       -8.3635863352  W2        2869            0.0000000000
      8606      2869  TIP3      H1            -56.6100405720      -18.4871724159       -8.0616163352  W2        2869            0.0000000000
      8607      2869  TIP3      H2            -56.5889005720      -16.9789024159       -7.9330263352  W2        2869            0.0000000000
      8608      2870  TIP3      OH2           -58.7511705720      -14.6961224159       -7.2945663352  W2        2870            0.0000000000
      8609      2870  TIP3      H1            -58.2591905720      -14.9170724159       -8.0853663352  W2        2870            0.0000000000
      8610      2870  TIP3      H2            -58.3890805720      -13.8557824159       -7.0136163352  W2        2870            0.0000000000
      8611      2871  TIP3      OH2           -40.7547905720      -18.3659724159       -1.0291663352  W2        2871            0.0000000000
      8612      2871  TIP3      H1            -41.6722205720      -18.0952624159       -1.0648163352  W2        2871            0.0000000000
      8613      2871  TIP3      H2            -40.6318505720      -18.9011324159       -1.8131963352  W2        2871            0.0000000000
      8614      2872  TIP3      OH2           -40.7185905720      -18.4429824159      -16.3673963352  W2        2872            0.0000000000
      8615      2872  TIP3      H1            -40.3063305720      -19.1644124159      -16.8425963352  W2        2872            0.0000000000
      8616      2872  TIP3      H2            -40.0369405720      -17.7735224159      -16.3089663352  W2        2872            0.0000000000
      8617      2873  TIP3      OH2           -58.4375205720      -18.4382124159      -13.2403263352  W2        2873            0.0000000000
      8618      2873  TIP3      H1            -59.3626805720      -18.2295524159      -13.3697763352  W2        2873            0.0000000000
      8619      2873  TIP3      H2            -57.9835305720      -17.9541324159      -13.9300963352  W2        2873            0.0000000000
      8620      2874  TIP3      OH2           -43.6668005720       -3.4540424159      -11.2945863352  W2        2874            0.0000000000
      8621      2874  TIP3      H1            -43.0145105720       -3.8018324159      -11.9026763352  W2        2874            0.0000000000
      8622      2874  TIP3      H2            -43.1564205720       -2.9657224159      -10.6486163352  W2        2874            0.0000000000
      8623      2875  TIP3      OH2           -58.4739805720      -19.7003124159       -4.8960763352  W2        2875            0.0000000000
      8624      2875  TIP3      H1            -59.1389305720      -19.9462824159       -4.2529863352  W2        2875            0.0000000000
      8625      2875  TIP3      H2            -58.9168505720      -19.0782724159       -5.4732763352  W2        2875            0.0000000000
      8626      2876  TIP3      OH2           -56.2820505720       -6.5249024159       -0.7514963352  W2        2876            0.0000000000
      8627      2876  TIP3      H1            -57.1028005720       -6.3502524159       -1.2120263352  W2        2876            0.0000000000
      8628      2876  TIP3      H2            -56.5342705720       -6.5984324159        0.1689436648  W2        2876            0.0000000000
      8629      2877  TIP3      OH2           -53.3277605720       -5.5507824159       -4.4930963352  W2        2877            0.0000000000
      8630      2877  TIP3      H1            -53.7526505720       -4.7409324159       -4.7756363352  W2        2877            0.0000000000
      8631      2877  TIP3      H2            -52.4234805720       -5.4653724159       -4.7951163352  W2        2877            0.0000000000
      8632      2878  TIP3      OH2           -49.0166205720       -4.1517824159       -1.5337263352  W2        2878            0.0000000000
      8633      2878  TIP3      H1            -48.8318705720       -4.4851724159       -0.6556963352  W2        2878            0.0000000000
      8634      2878  TIP3      H2            -48.1701705720       -3.8419224159       -1.8558063352  W2        2878            0.0000000000
      8635      2879  TIP3      OH2           -46.6715805720       -2.8658924159       -2.2895863352  W2        2879            0.0000000000
      8636      2879  TIP3      H1            -45.9946905720       -3.4986624159       -2.5296663352  W2        2879            0.0000000000
      8637      2879  TIP3      H2            -46.3497005720       -2.4648424159       -1.4822563352  W2        2879            0.0000000000
      8638      2880  TIP3      OH2           -41.7542005720      -20.2763424159       -3.2100863352  W2        2880            0.0000000000
      8639      2880  TIP3      H1            -42.5668505720      -19.9513124159       -3.5976163352  W2        2880            0.0000000000
      8640      2880  TIP3      H2            -41.5213505720      -21.0364924159       -3.7431763352  W2        2880            0.0000000000
      8641      2881  TIP3      OH2           -55.9260905720       -2.2943924159       -4.4455663352  W2        2881            0.0000000000
      8642      2881  TIP3      H1            -56.6464505720       -1.8542924159       -4.8967963352  W2        2881            0.0000000000
      8643      2881  TIP3      H2            -56.2916905720       -2.5449224159       -3.5971663352  W2        2881            0.0000000000
      8644      2882  TIP3      OH2           -53.4588305720       -2.6940024159       -5.4158463352  W2        2882            0.0000000000
      8645      2882  TIP3      H1            -54.3236105720       -2.6221524159       -5.0118363352  W2        2882            0.0000000000
      8646      2882  TIP3      H2            -53.5139305720       -2.1472724159       -6.1995963352  W2        2882            0.0000000000
      8647      2883  TIP3      OH2           -48.7482705720       -2.8061124159       -6.2402463352  W2        2883            0.0000000000
      8648      2883  TIP3      H1            -49.2048705720       -2.2771424159       -6.8944063352  W2        2883            0.0000000000
      8649      2883  TIP3      H2            -48.5854705720       -2.2029724159       -5.5150163352  W2        2883            0.0000000000
      8650      2884  TIP3      OH2           -46.4206405720       -3.9281524159       -5.2952163352  W2        2884            0.0000000000
      8651      2884  TIP3      H1            -47.3252705720       -3.7631324159       -5.5610063352  W2        2884            0.0000000000
      8652      2884  TIP3      H2            -45.9917805720       -3.0749324159       -5.3608763352  W2        2884            0.0000000000
      8653      2885  TIP3      OH2           -43.8164505720       -2.3582424159       -5.0004363352  W2        2885            0.0000000000
      8654      2885  TIP3      H1            -43.9982505720       -1.4423524159       -5.2109463352  W2        2885            0.0000000000
      8655      2885  TIP3      H2            -43.6396705720       -2.7685324159       -5.8469763352  W2        2885            0.0000000000
      8656      2886  TIP3      OH2           -56.5112805720       -3.6711424159       -7.5353863352  W2        2886            0.0000000000
      8657      2886  TIP3      H1            -56.5296805720       -4.0966324159       -6.6781563352  W2        2886            0.0000000000
      8658      2886  TIP3      H2            -55.7064905720       -3.9896424159       -7.9441663352  W2        2886            0.0000000000
      8659      2887  TIP3      OH2           -54.3699705720       -4.9612724159       -8.8803963352  W2        2887            0.0000000000
      8660      2887  TIP3      H1            -54.5889005720       -5.8775324159       -8.7107963352  W2        2887            0.0000000000
      8661      2887  TIP3      H2            -53.5457505720       -4.8212324159       -8.4142563352  W2        2887            0.0000000000
      8662      2888  TIP3      OH2           -51.8327205720       -4.4913424159       -8.0315963352  W2        2888            0.0000000000
      8663      2888  TIP3      H1            -51.6201505720       -5.3794424159       -8.3185063352  W2        2888            0.0000000000
      8664      2888  TIP3      H2            -51.7682105720       -4.5255724159       -7.0771963352  W2        2888            0.0000000000
      8665      2889  TIP3      OH2           -48.3243505720      -18.8272824159       -8.8872663352  W2        2889            0.0000000000
      8666      2889  TIP3      H1            -48.9986705720      -19.4567224159       -8.6316863352  W2        2889            0.0000000000
      8667      2889  TIP3      H2            -47.7604305720      -19.3113924159       -9.4904763352  W2        2889            0.0000000000
      8668      2890  TIP3      OH2           -43.1816305720      -20.7198824159       -8.7745563352  W2        2890            0.0000000000
      8669      2890  TIP3      H1            -42.5778705720      -20.1723424159       -9.2764563352  W2        2890            0.0000000000
      8670      2890  TIP3      H2            -44.0514305720      -20.4008424159       -9.0151463352  W2        2890            0.0000000000
      8671      2891  TIP3      OH2           -41.4545905720      -19.5810124159      -10.4414663352  W2        2891            0.0000000000
      8672      2891  TIP3      H1            -40.8428405720      -20.0954424159      -10.9681063352  W2        2891            0.0000000000
      8673      2891  TIP3      H2            -41.0722505720      -18.7038024159      -10.4180263352  W2        2891            0.0000000000
      8674      2892  TIP3      OH2           -55.9976005720      -20.1932524159      -11.0652763352  W2        2892            0.0000000000
      8675      2892  TIP3      H1            -56.7746205720      -20.4277624159      -11.5726863352  W2        2892            0.0000000000
      8676      2892  TIP3      H2            -55.4672405720      -20.9900424159      -11.0564763352  W2        2892            0.0000000000
      8677      2893  TIP3      OH2           -57.1612605720      -20.3954424159      -15.2616663352  W2        2893            0.0000000000
      8678      2893  TIP3      H1            -56.7221905720      -19.7843924159      -15.8533163352  W2        2893            0.0000000000
      8679      2893  TIP3      H2            -57.7950205720      -19.8570324159      -14.7876663352  W2        2893            0.0000000000
      8680      2894  TIP3      OH2           -51.4183405720      -20.2665424159      -11.2519663352  W2        2894            0.0000000000
      8681      2894  TIP3      H1            -50.5440005720      -19.8781124159      -11.2815363352  W2        2894            0.0000000000
      8682      2894  TIP3      H2            -51.5542605720      -20.4817624159      -10.3292463352  W2        2894            0.0000000000
      8683      2895  TIP3      OH2           -45.8615005720      -20.2365624159       -9.6027963352  W2        2895            0.0000000000
      8684      2895  TIP3      H1            -45.7853405720      -20.1414024159      -10.5521963352  W2        2895            0.0000000000
      8685      2895  TIP3      H2            -46.1365805720      -21.1442724159       -9.4738863352  W2        2895            0.0000000000
      8686      2896  TIP3      OH2           -44.5082405720      -20.2107824159      -13.9102963352  W2        2896            0.0000000000
      8687      2896  TIP3      H1            -45.2111305720      -19.5958624159      -14.1201563352  W2        2896            0.0000000000
      8688      2896  TIP3      H2            -44.9531005720      -21.0481124159      -13.7792063352  W2        2896            0.0000000000
      8689      2897  TIP3      OH2           -57.2603105720       -4.4472224159      -14.3641563352  W2        2897            0.0000000000
      8690      2897  TIP3      H1            -57.9453205720       -4.4853324159      -15.0316463352  W2        2897            0.0000000000
      8691      2897  TIP3      H2            -57.2565905720       -3.5344624159      -14.0759463352  W2        2897            0.0000000000
      8692      2898  TIP3      OH2           -55.3003505720      -18.4792924159      -16.8192563352  W2        2898            0.0000000000
      8693      2898  TIP3      H1            -54.8090105720      -19.1090524159      -17.3467063352  W2        2898            0.0000000000
      8694      2898  TIP3      H2            -54.6767205720      -18.1833524159      -16.1561363352  W2        2898            0.0000000000
      8695      2899  TIP3      OH2           -50.2743405720      -18.1861424159      -14.3622063352  W2        2899            0.0000000000
      8696      2899  TIP3      H1            -50.0962105720      -18.8328224159      -13.6793463352  W2        2899            0.0000000000
      8697      2899  TIP3      H2            -50.3277205720      -17.3523724159      -13.8950963352  W2        2899            0.0000000000
      8698      2900  TIP3      OH2           -48.3959605720       -3.2377324159      -15.9665363352  W2        2900            0.0000000000
      8699      2900  TIP3      H1            -47.5299405720       -2.8709924159      -16.1447163352  W2        2900            0.0000000000
      8700      2900  TIP3      H2            -48.6426805720       -3.6769324159      -16.7804563352  W2        2900            0.0000000000
      8701      2901  TIP3      OH2           -41.6870005720       -3.6747024159      -13.2874263352  W2        2901            0.0000000000
      8702      2901  TIP3      H1            -41.8812905720       -4.4224924159      -13.8524663352  W2        2901            0.0000000000
      8703      2901  TIP3      H2            -41.7259905720       -2.9166924159      -13.8706363352  W2        2901            0.0000000000
      8704      2902  TIP3      OH2           -56.0398005720      -19.6790624159       -1.5476563352  W2        2902            0.0000000000
      8705      2902  TIP3      H1            -56.4059805720      -20.4448024159       -1.1051863352  W2        2902            0.0000000000
      8706      2902  TIP3      H2            -55.1269505720      -19.6500424159       -1.2611463352  W2        2902            0.0000000000
      8707      2903  TIP3      OH2           -54.0667205720      -20.3286224159       -0.0119463352  W2        2903            0.0000000000
      8708      2903  TIP3      H1            -53.1683605720      -20.6026024159       -0.1966063352  W2        2903            0.0000000000
      8709      2903  TIP3      H2            -54.4534105720      -21.0710224159        0.4523136648  W2        2903            0.0000000000
      8710      2904  TIP3      OH2           -55.4421905720       -3.5271424159      -17.3389463352  W2        2904            0.0000000000
      8711      2904  TIP3      H1            -55.7097305720       -3.2408524159      -16.4656363352  W2        2904            0.0000000000
      8712      2904  TIP3      H2            -54.6709305720       -4.0732224159      -17.1866963352  W2        2904            0.0000000000
      8713      2905  TIP3      OH2           -45.6454905720      -20.9960924159        0.1703336648  W2        2905            0.0000000000
      8714      2905  TIP3      H1            -45.5687705720      -21.4220224159        1.0241036648  W2        2905            0.0000000000
      8715      2905  TIP3      H2            -44.7518305720      -20.9826224159       -0.1723163352  W2        2905            0.0000000000
      8716      2906  TIP3      OH2           -42.4693805720       -4.9234624159       -1.1372463352  W2        2906            0.0000000000
      8717      2906  TIP3      H1            -43.2511905720       -5.1096624159       -1.6571863352  W2        2906            0.0000000000
      8718      2906  TIP3      H2            -42.5413905720       -3.9940324159       -0.9199963352  W2        2906            0.0000000000
      8719      2907  TIP3      OH2           -28.0633405720      -11.0370224159      -11.1065263352  W2        2907            0.0000000000
      8720      2907  TIP3      H1            -27.9742305720      -10.0932024159      -11.2388163352  W2        2907            0.0000000000
      8721      2907  TIP3      H2            -28.7015805720      -11.3123824159      -11.7645863352  W2        2907            0.0000000000
      8722      2908  TIP3      OH2           -29.1302105720      -11.7819524159       -7.6877063352  W2        2908            0.0000000000
      8723      2908  TIP3      H1            -29.1684605720      -12.4283224159       -6.9827463352  W2        2908            0.0000000000
      8724      2908  TIP3      H2            -29.4525605720      -12.2485124159       -8.4588363352  W2        2908            0.0000000000
      8725      2909  TIP3      OH2           -36.7617105720      -12.1677424159       -6.0947163352  W2        2909            0.0000000000
      8726      2909  TIP3      H1            -36.7205005720      -12.7934124159       -5.3714763352  W2        2909            0.0000000000
      8727      2909  TIP3      H2            -36.0589405720      -11.5438824159       -5.9126763352  W2        2909            0.0000000000
      8728      2910  TIP3      OH2           -25.4241905720       -8.8429124159       -9.3861963352  W2        2910            0.0000000000
      8729      2910  TIP3      H1            -25.8649205720       -9.5633124159       -8.9356363352  W2        2910            0.0000000000
      8730      2910  TIP3      H2            -25.4372205720       -8.1221924159       -8.7564263352  W2        2910            0.0000000000
      8731      2911  TIP3      OH2           -35.8384005720       -7.7178524159       -7.5598063352  W2        2911            0.0000000000
      8732      2911  TIP3      H1            -36.2078805720       -8.5198024159       -7.9293763352  W2        2911            0.0000000000
      8733      2911  TIP3      H2            -34.8972905720       -7.8863624159       -7.5134663352  W2        2911            0.0000000000
      8734      2912  TIP3      OH2           -39.2283505720      -14.0575924159      -12.1669263352  W2        2912            0.0000000000
      8735      2912  TIP3      H1            -39.6760105720      -13.2117224159      -12.1852763352  W2        2912            0.0000000000
      8736      2912  TIP3      H2            -39.7892305720      -14.6371724159      -12.6824163352  W2        2912            0.0000000000
      8737      2913  TIP3      OH2           -38.5177405720      -11.8956324159      -10.0411263352  W2        2913            0.0000000000
      8738      2913  TIP3      H1            -38.3043905720      -12.6654724159       -9.5138263352  W2        2913            0.0000000000
      8739      2913  TIP3      H2            -37.7799805720      -11.8059624159      -10.6443663352  W2        2913            0.0000000000
      8740      2914  TIP3      OH2           -28.3126405720       -3.7387424159       -9.1741563352  W2        2914            0.0000000000
      8741      2914  TIP3      H1            -27.6930005720       -4.4152724159       -9.4472363352  W2        2914            0.0000000000
      8742      2914  TIP3      H2            -28.5209005720       -3.9566624159       -8.2656663352  W2        2914            0.0000000000
      8743      2915  TIP3      OH2           -30.7407705720       -9.3498124159       -7.2816063352  W2        2915            0.0000000000
      8744      2915  TIP3      H1            -30.4369805720      -10.0356724159       -7.8761963352  W2        2915            0.0000000000
      8745      2915  TIP3      H2            -30.0193705720       -9.2309424159       -6.6638063352  W2        2915            0.0000000000
      8746      2916  TIP3      OH2           -22.0777905720      -17.7482824159       -6.4209863352  W2        2916            0.0000000000
      8747      2916  TIP3      H1            -22.0285705720      -17.1381624159       -5.6850763352  W2        2916            0.0000000000
      8748      2916  TIP3      H2            -21.6522805720      -17.2871924159       -7.1438763352  W2        2916            0.0000000000
      8749      2917  TIP3      OH2           -27.6000705720      -14.9555724159       -6.9541263352  W2        2917            0.0000000000
      8750      2917  TIP3      H1            -27.4574805720      -15.9018724159       -6.9339663352  W2        2917            0.0000000000
      8751      2917  TIP3      H2            -27.7061705720      -14.7485924159       -7.8826363352  W2        2917            0.0000000000
      8752      2918  TIP3      OH2           -34.4452405720      -16.8539324159       -9.6816463352  W2        2918            0.0000000000
      8753      2918  TIP3      H1            -34.4021305720      -15.9940824159      -10.1000163352  W2        2918            0.0000000000
      8754      2918  TIP3      H2            -34.9028305720      -17.4064624159      -10.3153263352  W2        2918            0.0000000000
      8755      2919  TIP3      OH2           -26.7229705720      -16.7233724159      -11.2808163352  W2        2919            0.0000000000
      8756      2919  TIP3      H1            -26.0765405720      -17.0520524159      -10.6560563352  W2        2919            0.0000000000
      8757      2919  TIP3      H2            -26.2130305720      -16.2054724159      -11.9036763352  W2        2919            0.0000000000
      8758      2920  TIP3      OH2           -37.8250905720      -14.4573524159       -8.9195063352  W2        2920            0.0000000000
      8759      2920  TIP3      H1            -37.1714305720      -15.0071824159       -8.4874963352  W2        2920            0.0000000000
      8760      2920  TIP3      H2            -37.8011605720      -14.7314524159       -9.8363063352  W2        2920            0.0000000000
      8761      2921  TIP3      OH2           -32.6686405720      -12.9072224159       -9.7043563352  W2        2921            0.0000000000
      8762      2921  TIP3      H1            -32.0525405720      -13.4336824159       -9.1949563352  W2        2921            0.0000000000
      8763      2921  TIP3      H2            -33.2547605720      -13.5473524159      -10.1079963352  W2        2921            0.0000000000
      8764      2922  TIP3      OH2           -21.6863305720      -16.2703624159       -4.1850063352  W2        2922            0.0000000000
      8765      2922  TIP3      H1            -22.3748705720      -15.6122924159       -4.2803463352  W2        2922            0.0000000000
      8766      2922  TIP3      H2            -21.6708705720      -16.4675724159       -3.2484663352  W2        2922            0.0000000000
      8767      2923  TIP3      OH2           -35.6350505720      -17.9360924159       -5.6075663352  W2        2923            0.0000000000
      8768      2923  TIP3      H1            -35.8538805720      -17.4060324159       -6.3739663352  W2        2923            0.0000000000
      8769      2923  TIP3      H2            -36.3029605720      -17.7095424159       -4.9604263352  W2        2923            0.0000000000
      8770      2924  TIP3      OH2           -28.2660705720       -8.4359824159      -12.0636563352  W2        2924            0.0000000000
      8771      2924  TIP3      H1            -28.5615605720       -8.7587524159      -12.9149663352  W2        2924            0.0000000000
      8772      2924  TIP3      H2            -28.5902905720       -7.5363124159      -12.0223963352  W2        2924            0.0000000000
      8773      2925  TIP3      OH2           -33.0659105720      -10.2605224159       -5.3201963352  W2        2925            0.0000000000
      8774      2925  TIP3      H1            -33.8060005720       -9.6623724159       -5.2166763352  W2        2925            0.0000000000
      8775      2925  TIP3      H2            -32.3519605720       -9.7065624159       -5.6358363352  W2        2925            0.0000000000
      8776      2926  TIP3      OH2           -24.9591305720      -17.4324424159       -9.3002263352  W2        2926            0.0000000000
      8777      2926  TIP3      H1            -25.1743305720      -18.1981024159       -8.7676263352  W2        2926            0.0000000000
      8778      2926  TIP3      H2            -24.3033905720      -16.9599824159       -8.7873763352  W2        2926            0.0000000000
      8779      2927  TIP3      OH2           -36.0413205720      -16.0439124159       -7.6553463352  W2        2927            0.0000000000
      8780      2927  TIP3      H1            -35.4276905720      -15.4111524159       -7.2821063352  W2        2927            0.0000000000
      8781      2927  TIP3      H2            -35.5292505720      -16.5164124159       -8.3116563352  W2        2927            0.0000000000
      8782      2928  TIP3      OH2           -34.6584805720       -8.2962224159       -4.5330463352  W2        2928            0.0000000000
      8783      2928  TIP3      H1            -34.6637205720       -7.4168724159       -4.9111163352  W2        2928            0.0000000000
      8784      2928  TIP3      H2            -35.5120705720       -8.3798124159       -4.1080563352  W2        2928            0.0000000000
      8785      2929  TIP3      OH2           -38.5373905720       -8.6254324159      -13.7511163352  W2        2929            0.0000000000
      8786      2929  TIP3      H1            -38.8093005720       -8.3963324159      -14.6398263352  W2        2929            0.0000000000
      8787      2929  TIP3      H2            -38.4918205720       -7.7875524159      -13.2905863352  W2        2929            0.0000000000
      8788      2930  TIP3      OH2           -24.9124205720       -7.0038424159       -7.0382663352  W2        2930            0.0000000000
      8789      2930  TIP3      H1            -25.8540505720       -6.9454524159       -6.8765763352  W2        2930            0.0000000000
      8790      2930  TIP3      H2            -24.6358105720       -6.0977924159       -7.1752963352  W2        2930            0.0000000000
      8791      2931  TIP3      OH2           -24.6117205720      -18.7173124159       -5.6208763352  W2        2931            0.0000000000
      8792      2931  TIP3      H1            -25.3478005720      -18.1066024159       -5.6587463352  W2        2931            0.0000000000
      8793      2931  TIP3      H2            -23.9283205720      -18.3024124159       -6.1472363352  W2        2931            0.0000000000
      8794      2932  TIP3      OH2           -31.6085805720      -20.6305824159       -8.1550763352  W2        2932            0.0000000000
      8795      2932  TIP3      H1            -31.7261605720      -21.5789824159       -8.2092463352  W2        2932            0.0000000000
      8796      2932  TIP3      H2            -32.4635705720      -20.2979724159       -7.8819663352  W2        2932            0.0000000000
      8797      2933  TIP3      OH2           -26.6603005720       -5.2224924159      -10.4131063352  W2        2933            0.0000000000
      8798      2933  TIP3      H1            -26.2350705720       -5.9297024159      -10.8981463352  W2        2933            0.0000000000
      8799      2933  TIP3      H2            -26.3433005720       -4.4212224159      -10.8298863352  W2        2933            0.0000000000
      8800      2934  TIP3      OH2           -25.5006505720       -7.3216424159      -11.9044463352  W2        2934            0.0000000000
      8801      2934  TIP3      H1            -25.7581705720       -8.0116324159      -12.5158563352  W2        2934            0.0000000000
      8802      2934  TIP3      H2            -25.4295705720       -7.7645224159      -11.0588563352  W2        2934            0.0000000000
      8803      2935  TIP3      OH2           -23.8146305720       -8.7549724159       -3.4270963352  W2        2935            0.0000000000
      8804      2935  TIP3      H1            -23.6750005720       -9.3467224159       -4.1663963352  W2        2935            0.0000000000
      8805      2935  TIP3      H2            -23.6473505720       -7.8823824159       -3.7832163352  W2        2935            0.0000000000
      8806      2936  TIP3      OH2           -29.3420905720      -11.7930224159      -13.6544963352  W2        2936            0.0000000000
      8807      2936  TIP3      H1            -30.0535405720      -11.2580524159      -14.0064463352  W2        2936            0.0000000000
      8808      2936  TIP3      H2            -28.6511305720      -11.7378124159      -14.3146063352  W2        2936            0.0000000000
      8809      2937  TIP3      OH2           -29.2881705720      -13.3355924159      -16.6159963352  W2        2937            0.0000000000
      8810      2937  TIP3      H1            -28.5871805720      -13.3129024159      -15.9645963352  W2        2937            0.0000000000
      8811      2937  TIP3      H2            -28.9858805720      -13.9636224159      -17.2720663352  W2        2937            0.0000000000
      8812      2938  TIP3      OH2           -21.9727005720      -12.4151724159       -5.3610563352  W2        2938            0.0000000000
      8813      2938  TIP3      H1            -22.6252905720      -11.7206124159       -5.2719663352  W2        2938            0.0000000000
      8814      2938  TIP3      H2            -21.5076705720      -12.2050824159       -6.1708963352  W2        2938            0.0000000000
      8815      2939  TIP3      OH2           -25.9363205720      -11.5836924159      -12.7029063352  W2        2939            0.0000000000
      8816      2939  TIP3      H1            -26.6682205720      -11.3553224159      -12.1298463352  W2        2939            0.0000000000
      8817      2939  TIP3      H2            -25.4891005720      -12.2974224159      -12.2481563352  W2        2939            0.0000000000
      8818      2940  TIP3      OH2           -26.0389705720      -13.4094324159       -3.6352063352  W2        2940            0.0000000000
      8819      2940  TIP3      H1            -25.9590605720      -12.6459924159       -3.0633563352  W2        2940            0.0000000000
      8820      2940  TIP3      H2            -26.6402005720      -13.1301924159       -4.3256963352  W2        2940            0.0000000000
      8821      2941  TIP3      OH2           -34.2909505720      -10.9530724159      -10.8204063352  W2        2941            0.0000000000
      8822      2941  TIP3      H1            -34.6214305720      -11.3237324159      -11.6387063352  W2        2941            0.0000000000
      8823      2941  TIP3      H2            -33.7025405720      -11.6236724159      -10.4735763352  W2        2941            0.0000000000
      8824      2942  TIP3      OH2           -32.9242005720       -7.5250124159       -8.1391863352  W2        2942            0.0000000000
      8825      2942  TIP3      H1            -33.0190705720       -8.1037024159       -8.8957263352  W2        2942            0.0000000000
      8826      2942  TIP3      H2            -32.1948405720       -7.8964424159       -7.6429063352  W2        2942            0.0000000000
      8827      2943  TIP3      OH2           -33.9244005720      -12.1845124159       -7.1869063352  W2        2943            0.0000000000
      8828      2943  TIP3      H1            -33.3591505720      -12.0630924159       -7.9497863352  W2        2943            0.0000000000
      8829      2943  TIP3      H2            -33.6055105720      -11.5470124159       -6.5480563352  W2        2943            0.0000000000
      8830      2944  TIP3      OH2           -27.6151805720       -6.6813224159       -6.4528563352  W2        2944            0.0000000000
      8831      2944  TIP3      H1            -27.8555205720       -6.0190124159       -5.8049363352  W2        2944            0.0000000000
      8832      2944  TIP3      H2            -27.8133605720       -7.5158024159       -6.0278963352  W2        2944            0.0000000000
      8833      2945  TIP3      OH2           -33.0443305720       -7.7852424159       -2.4697163352  W2        2945            0.0000000000
      8834      2945  TIP3      H1            -33.3555805720       -7.0029224159       -2.0143963352  W2        2945            0.0000000000
      8835      2945  TIP3      H2            -33.6943105720       -7.9383324159       -3.1555163352  W2        2945            0.0000000000
      8836      2946  TIP3      OH2           -27.0653705720      -12.4214024159      -15.0177863352  W2        2946            0.0000000000
      8837      2946  TIP3      H1            -26.4858205720      -12.2713724159      -14.2708963352  W2        2946            0.0000000000
      8838      2946  TIP3      H2            -26.6513705720      -11.9506624159      -15.7411463352  W2        2946            0.0000000000
      8839      2947  TIP3      OH2           -36.1243405720      -11.5871324159       -3.2411463352  W2        2947            0.0000000000
      8840      2947  TIP3      H1            -36.0540205720      -10.9364524159       -2.5426463352  W2        2947            0.0000000000
      8841      2947  TIP3      H2            -37.0151205720      -11.4843824159       -3.5760563352  W2        2947            0.0000000000
      8842      2948  TIP3      OH2           -29.3388805720       -5.6845524159      -11.5824763352  W2        2948            0.0000000000
      8843      2948  TIP3      H1            -28.8651205720       -5.3889224159      -10.8050563352  W2        2948            0.0000000000
      8844      2948  TIP3      H2            -29.9019505720       -4.9463924159      -11.8155163352  W2        2948            0.0000000000
      8845      2949  TIP3      OH2           -34.8047405720       -5.7137424159       -1.7063363352  W2        2949            0.0000000000
      8846      2949  TIP3      H1            -34.7972105720       -5.8497724159       -2.6537863352  W2        2949            0.0000000000
      8847      2949  TIP3      H2            -35.7207005720       -5.8309324159       -1.4543363352  W2        2949            0.0000000000
      8848      2950  TIP3      OH2           -23.3665305720      -20.6713624159      -15.2048163352  W2        2950            0.0000000000
      8849      2950  TIP3      H1            -24.2664605720      -20.5324624159      -14.9097563352  W2        2950            0.0000000000
      8850      2950  TIP3      H2            -23.1146905720      -19.8399024159      -15.6066463352  W2        2950            0.0000000000
      8851      2951  TIP3      OH2           -35.3006805720      -11.8836424159      -13.2311263352  W2        2951            0.0000000000
      8852      2951  TIP3      H1            -35.5925505720      -11.1154724159      -13.7219963352  W2        2951            0.0000000000
      8853      2951  TIP3      H2            -35.9751605720      -12.5430224159      -13.3939863352  W2        2951            0.0000000000
      8854      2952  TIP3      OH2           -22.1773905720       -6.3051224159      -16.8284263352  W2        2952            0.0000000000
      8855      2952  TIP3      H1            -22.1040405720       -5.3661024159      -16.6578963352  W2        2952            0.0000000000
      8856      2952  TIP3      H2            -21.2718805720       -6.6102624159      -16.8846963352  W2        2952            0.0000000000
      8857      2953  TIP3      OH2           -39.2076705720       -9.5207224159       -4.4161463352  W2        2953            0.0000000000
      8858      2953  TIP3      H1            -39.7088305720       -9.5487824159       -5.2311763352  W2        2953            0.0000000000
      8859      2953  TIP3      H2            -39.2023005720      -10.4264024159       -4.1064163352  W2        2953            0.0000000000
      8860      2954  TIP3      OH2           -39.4574005720       -6.7403424159       -7.5321263352  W2        2954            0.0000000000
      8861      2954  TIP3      H1            -38.5113405720       -6.8846424159       -7.5511763352  W2        2954            0.0000000000
      8862      2954  TIP3      H2            -39.5697705720       -5.9560624159       -6.9950063352  W2        2954            0.0000000000
      8863      2955  TIP3      OH2           -21.2595505720       -6.0743724159       -1.8497563352  W2        2955            0.0000000000
      8864      2955  TIP3      H1            -21.3088705720       -7.0295624159       -1.8869963352  W2        2955            0.0000000000
      8865      2955  TIP3      H2            -22.0863205720       -5.8068424159       -1.4483763352  W2        2955            0.0000000000
      8866      2956  TIP3      OH2           -30.2811505720       -6.5004524159       -2.9736163352  W2        2956            0.0000000000
      8867      2956  TIP3      H1            -30.1936905720       -5.6739924159       -2.4987063352  W2        2956            0.0000000000
      8868      2956  TIP3      H2            -31.1446405720       -6.8300724159       -2.7246863352  W2        2956            0.0000000000
      8869      2957  TIP3      OH2           -29.8665705720       -2.7280824159      -13.1675563352  W2        2957            0.0000000000
      8870      2957  TIP3      H1            -29.9419705720       -2.8493624159      -14.1140363352  W2        2957            0.0000000000
      8871      2957  TIP3      H2            -29.8337005720       -1.7788124159      -13.0490963352  W2        2957            0.0000000000
      8872      2958  TIP3      OH2           -36.2131905720       -3.9393824159      -11.3866563352  W2        2958            0.0000000000
      8873      2958  TIP3      H1            -36.0611505720       -4.2873424159      -10.5080063352  W2        2958            0.0000000000
      8874      2958  TIP3      H2            -37.0641505720       -4.2956524159      -11.6419363352  W2        2958            0.0000000000
      8875      2959  TIP3      OH2           -26.7649705720       -3.5740624159      -16.1653163352  W2        2959            0.0000000000
      8876      2959  TIP3      H1            -26.3901305720       -4.3184524159      -16.6360563352  W2        2959            0.0000000000
      8877      2959  TIP3      H2            -26.7606005720       -3.8440024159      -15.2469863352  W2        2959            0.0000000000
      8878      2960  TIP3      OH2           -27.0961605720       -3.6483524159      -13.4160963352  W2        2960            0.0000000000
      8879      2960  TIP3      H1            -28.0311805720       -3.5481624159      -13.2373963352  W2        2960            0.0000000000
      8880      2960  TIP3      H2            -26.8159705720       -4.3577524159      -12.8377763352  W2        2960            0.0000000000
      8881      2961  TIP3      OH2           -24.1075705720      -14.5811224159       -1.3695363352  W2        2961            0.0000000000
      8882      2961  TIP3      H1            -24.5148905720      -14.1005624159       -2.0902063352  W2        2961            0.0000000000
      8883      2961  TIP3      H2            -24.0670005720      -15.4865224159       -1.6774563352  W2        2961            0.0000000000
      8884      2962  TIP3      OH2           -36.9586205720       -8.1971824159       -3.3728663352  W2        2962            0.0000000000
      8885      2962  TIP3      H1            -36.7424905720       -8.5586224159       -2.5132863352  W2        2962            0.0000000000
      8886      2962  TIP3      H2            -37.8141505720       -8.5718024159       -3.5825163352  W2        2962            0.0000000000
      8887      2963  TIP3      OH2           -34.3398205720      -19.7271324159       -7.3774463352  W2        2963            0.0000000000
      8888      2963  TIP3      H1            -35.2014505720      -19.8143124159       -7.7851563352  W2        2963            0.0000000000
      8889      2963  TIP3      H2            -34.3622505720      -18.8711224159       -6.9496863352  W2        2963            0.0000000000
      8890      2964  TIP3      OH2           -29.6770405720      -20.0050924159       -4.0027463352  W2        2964            0.0000000000
      8891      2964  TIP3      H1            -29.2567305720      -20.4203824159       -3.2496863352  W2        2964            0.0000000000
      8892      2964  TIP3      H2            -30.6100805720      -20.1837624159       -3.8855463352  W2        2964            0.0000000000
      8893      2965  TIP3      OH2           -26.3505505720      -16.2495724159       -3.1492963352  W2        2965            0.0000000000
      8894      2965  TIP3      H1            -26.8646005720      -16.3753524159       -2.3516963352  W2        2965            0.0000000000
      8895      2965  TIP3      H2            -26.5060805720      -15.3372624159       -3.3936763352  W2        2965            0.0000000000
      8896      2966  TIP3      OH2           -25.5880605720      -11.3885724159      -17.3879963352  W2        2966            0.0000000000
      8897      2966  TIP3      H1            -25.5459805720      -11.6111824159      -18.3179963352  W2        2966            0.0000000000
      8898      2966  TIP3      H2            -24.7388505720      -10.9898624159      -17.1980063352  W2        2966            0.0000000000
      8899      2967  TIP3      OH2           -30.0153105720      -17.5127524159      -16.7176663352  W2        2967            0.0000000000
      8900      2967  TIP3      H1            -30.2688305720      -17.4935924159      -15.7948563352  W2        2967            0.0000000000
      8901      2967  TIP3      H2            -30.2721005720      -18.3842124159      -17.0190463352  W2        2967            0.0000000000
      8902      2968  TIP3      OH2           -34.2488105720      -14.7616824159       -6.2824263352  W2        2968            0.0000000000
      8903      2968  TIP3      H1            -34.8906005720      -14.8019524159       -5.5734163352  W2        2968            0.0000000000
      8904      2968  TIP3      H2            -34.2116105720      -13.8352124159       -6.5201263352  W2        2968            0.0000000000
      8905      2969  TIP3      OH2           -34.2519005720      -14.5406724159      -11.3704263352  W2        2969            0.0000000000
      8906      2969  TIP3      H1            -35.1446105720      -14.8810624159      -11.4290463352  W2        2969            0.0000000000
      8907      2969  TIP3      H2            -33.8012405720      -14.9175824159      -12.1261063352  W2        2969            0.0000000000
      8908      2970  TIP3      OH2           -28.7163505720      -14.1246424159      -12.5533463352  W2        2970            0.0000000000
      8909      2970  TIP3      H1            -29.1253205720      -13.3097824159      -12.8448663352  W2        2970            0.0000000000
      8910      2970  TIP3      H2            -27.9957305720      -14.2646324159      -13.1676363352  W2        2970            0.0000000000
      8911      2971  TIP3      OH2           -29.6141905720      -13.9490024159       -1.0652763352  W2        2971            0.0000000000
      8912      2971  TIP3      H1            -30.1768105720      -14.6538424159       -0.7444963352  W2        2971            0.0000000000
      8913      2971  TIP3      H2            -28.7878505720      -14.0698124159       -0.5975163352  W2        2971            0.0000000000
      8914      2972  TIP3      OH2           -27.7115805720      -14.6786024159       -9.7393763352  W2        2972            0.0000000000
      8915      2972  TIP3      H1            -27.9071305720      -14.0729224159      -10.4543163352  W2        2972            0.0000000000
      8916      2972  TIP3      H2            -27.5303205720      -15.5120824159      -10.1737463352  W2        2972            0.0000000000
      8917      2973  TIP3      OH2           -36.4987605720      -14.4413324159       -4.4152263352  W2        2973            0.0000000000
      8918      2973  TIP3      H1            -36.5368205720      -14.0411724159       -3.5465163352  W2        2973            0.0000000000
      8919      2973  TIP3      H2            -36.9896505720      -15.2580924159       -4.3249363352  W2        2973            0.0000000000
      8920      2974  TIP3      OH2           -33.1330205720      -17.0671024159      -17.6166263352  W2        2974            0.0000000000
      8921      2974  TIP3      H1            -33.5639505720      -17.5120924159      -16.8868863352  W2        2974            0.0000000000
      8922      2974  TIP3      H2            -33.8511505720      -16.6954724159      -18.1288763352  W2        2974            0.0000000000
      8923      2975  TIP3      OH2           -39.8906805720      -17.3251524159      -10.5647563352  W2        2975            0.0000000000
      8924      2975  TIP3      H1            -39.2599105720      -17.3539424159       -9.8453663352  W2        2975            0.0000000000
      8925      2975  TIP3      H2            -39.4412505720      -17.7502824159      -11.2951663352  W2        2975            0.0000000000
      8926      2976  TIP3      OH2           -38.6164705720      -16.5789524159      -15.1407163352  W2        2976            0.0000000000
      8927      2976  TIP3      H1            -38.1423005720      -15.9879624159      -15.7256263352  W2        2976            0.0000000000
      8928      2976  TIP3      H2            -39.3338305720      -16.0486624159      -14.7937063352  W2        2976            0.0000000000
      8929      2977  TIP3      OH2           -28.4476605720      -13.0404724159       -5.0681363352  W2        2977            0.0000000000
      8930      2977  TIP3      H1            -28.1241805720      -13.6715024159       -5.7110863352  W2        2977            0.0000000000
      8931      2977  TIP3      H2            -28.8877305720      -13.5752524159       -4.4073963352  W2        2977            0.0000000000
      8932      2978  TIP3      OH2           -31.6703705720      -17.1129224159      -10.2840163352  W2        2978            0.0000000000
      8933      2978  TIP3      H1            -32.5812605720      -17.0562424159       -9.9954163352  W2        2978            0.0000000000
      8934      2978  TIP3      H2            -31.1650805720      -17.1733724159       -9.4732963352  W2        2978            0.0000000000
      8935      2979  TIP3      OH2           -36.8420305720      -15.4842924159      -11.4572563352  W2        2979            0.0000000000
      8936      2979  TIP3      H1            -37.7312305720      -15.3847424159      -11.7972963352  W2        2979            0.0000000000
      8937      2979  TIP3      H2            -36.5455405720      -16.3259924159      -11.8034663352  W2        2979            0.0000000000
      8938      2980  TIP3      OH2           -33.1888505720      -15.4840324159      -13.8007963352  W2        2980            0.0000000000
      8939      2980  TIP3      H1            -32.2573005720      -15.3550324159      -13.6224863352  W2        2980            0.0000000000
      8940      2980  TIP3      H2            -33.4038205720      -14.8146024159      -14.4503263352  W2        2980            0.0000000000
      8941      2981  TIP3      OH2           -27.2651805720      -17.8782924159       -7.0198363352  W2        2981            0.0000000000
      8942      2981  TIP3      H1            -27.9420205720      -17.7469824159       -6.3558663352  W2        2981            0.0000000000
      8943      2981  TIP3      H2            -27.7506905720      -18.0333424159       -7.8300663352  W2        2981            0.0000000000
      8944      2982  TIP3      OH2           -34.5148305720      -14.2898124159      -16.2341863352  W2        2982            0.0000000000
      8945      2982  TIP3      H1            -35.0573205720      -14.6694324159      -16.9254263352  W2        2982            0.0000000000
      8946      2982  TIP3      H2            -33.6813405720      -14.0953424159      -16.6627763352  W2        2982            0.0000000000
      8947      2983  TIP3      OH2           -23.9776705720       -2.2067524159       -0.7430763352  W2        2983            0.0000000000
      8948      2983  TIP3      H1            -23.7778005720       -1.7825624159       -1.5775463352  W2        2983            0.0000000000
      8949      2983  TIP3      H2            -23.3223005720       -1.8629324159       -0.1360363352  W2        2983            0.0000000000
      8950      2984  TIP3      OH2           -36.3796905720       -9.7326224159       -1.1350263352  W2        2984            0.0000000000
      8951      2984  TIP3      H1            -35.6474505720       -9.4780324159       -0.5735763352  W2        2984            0.0000000000
      8952      2984  TIP3      H2            -37.1598205720       -9.5280824159       -0.6194863352  W2        2984            0.0000000000
      8953      2985  TIP3      OH2           -30.3504005720      -14.3256224159       -8.3970563352  W2        2985            0.0000000000
      8954      2985  TIP3      H1            -29.7860605720      -14.8719624159       -8.9440963352  W2        2985            0.0000000000
      8955      2985  TIP3      H2            -30.4980605720      -14.8474324159       -7.6082963352  W2        2985            0.0000000000
      8956      2986  TIP3      OH2           -35.3484305720      -18.1890124159      -11.9785763352  W2        2986            0.0000000000
      8957      2986  TIP3      H1            -35.6654805720      -19.0914824159      -12.0140363352  W2        2986            0.0000000000
      8958      2986  TIP3      H2            -34.5670205720      -18.1872724159      -12.5314163352  W2        2986            0.0000000000
      8959      2987  TIP3      OH2           -31.7238105720      -15.9370124159       -5.9830163352  W2        2987            0.0000000000
      8960      2987  TIP3      H1            -32.5592805720      -15.4830624159       -5.8727763352  W2        2987            0.0000000000
      8961      2987  TIP3      H2            -31.1997505720      -15.6611624159       -5.2310263352  W2        2987            0.0000000000
      8962      2988  TIP3      OH2           -31.1795505720       -9.7242424159      -14.2983763352  W2        2988            0.0000000000
      8963      2988  TIP3      H1            -31.9244505720      -10.2317124159      -14.6205863352  W2        2988            0.0000000000
      8964      2988  TIP3      H2            -31.3138305720       -9.6754424159      -13.3518963352  W2        2988            0.0000000000
      8965      2989  TIP3      OH2           -24.0296605720      -10.5914224159       -5.5116163352  W2        2989            0.0000000000
      8966      2989  TIP3      H1            -23.3877805720      -10.1347924159       -6.0553963352  W2        2989            0.0000000000
      8967      2989  TIP3      H2            -24.8599705720      -10.4781824159       -5.9742063352  W2        2989            0.0000000000
      8968      2990  TIP3      OH2           -27.2818705720      -16.9102524159      -16.0991163352  W2        2990            0.0000000000
      8969      2990  TIP3      H1            -28.2204505720      -16.7986924159      -16.2502363352  W2        2990            0.0000000000
      8970      2990  TIP3      H2            -26.9846605720      -16.0535624159      -15.7925463352  W2        2990            0.0000000000
      8971      2991  TIP3      OH2           -29.6603405720       -9.5399124159       -3.0614663352  W2        2991            0.0000000000
      8972      2991  TIP3      H1            -30.0057305720       -9.9216724159       -2.2545063352  W2        2991            0.0000000000
      8973      2991  TIP3      H2            -29.8603305720       -8.6065524159       -2.9901763352  W2        2991            0.0000000000
      8974      2992  TIP3      OH2           -26.5635205720      -15.0429824159      -14.4383763352  W2        2992            0.0000000000
      8975      2992  TIP3      H1            -25.6716205720      -15.1804824159      -14.1192563352  W2        2992            0.0000000000
      8976      2992  TIP3      H2            -26.5071605720      -14.2523724159      -14.9750263352  W2        2992            0.0000000000
      8977      2993  TIP3      OH2           -36.0547205720      -10.4292424159       -8.5285863352  W2        2993            0.0000000000
      8978      2993  TIP3      H1            -35.3100005720      -10.4316724159       -9.1299363352  W2        2993            0.0000000000
      8979      2993  TIP3      H2            -35.9770605720      -11.2528624159       -8.0470763352  W2        2993            0.0000000000
      8980      2994  TIP3      OH2           -29.0541405720       -8.2658124159      -15.2729163352  W2        2994            0.0000000000
      8981      2994  TIP3      H1            -29.3493005720       -7.4390224159      -14.8914363352  W2        2994            0.0000000000
      8982      2994  TIP3      H2            -29.7571405720       -8.8851224159      -15.0767763352  W2        2994            0.0000000000
      8983      2995  TIP3      OH2           -39.0467505720      -11.9685524159       -3.2137363352  W2        2995            0.0000000000
      8984      2995  TIP3      H1            -38.8238905720      -12.3865924159       -2.3819863352  W2        2995            0.0000000000
      8985      2995  TIP3      H2            -39.6487405720      -12.5810524159       -3.6364563352  W2        2995            0.0000000000
      8986      2996  TIP3      OH2           -32.0302605720      -12.4515624159       -1.0007663352  W2        2996            0.0000000000
      8987      2996  TIP3      H1            -32.3261805720      -12.6172624159       -1.8958563352  W2        2996            0.0000000000
      8988      2996  TIP3      H2            -31.0987405720      -12.6715324159       -1.0113763352  W2        2996            0.0000000000
      8989      2997  TIP3      OH2           -27.4099805720       -7.0783624159       -3.1109663352  W2        2997            0.0000000000
      8990      2997  TIP3      H1            -28.3105505720       -6.8951024159       -3.3785763352  W2        2997            0.0000000000
      8991      2997  TIP3      H2            -27.3758705720       -6.8194324159       -2.1900863352  W2        2997            0.0000000000
      8992      2998  TIP3      OH2           -21.6786505720      -14.8335724159      -14.7437063352  W2        2998            0.0000000000
      8993      2998  TIP3      H1            -22.2330205720      -15.2297724159      -15.4159563352  W2        2998            0.0000000000
      8994      2998  TIP3      H2            -21.5782905720      -13.9230524159      -15.0213763352  W2        2998            0.0000000000
      8995      2999  TIP3      OH2           -21.7154505720       -9.0334024159       -1.9065563352  W2        2999            0.0000000000
      8996      2999  TIP3      H1            -22.5666005720       -8.7950224159       -2.2739163352  W2        2999            0.0000000000
      8997      2999  TIP3      H2            -21.1251105720       -9.0500824159       -2.6598463352  W2        2999            0.0000000000
      8998      3000  TIP3      OH2           -23.3834805720       -6.0475324159      -14.2784963352  W2        3000            0.0000000000
      8999      3000  TIP3      H1            -23.7563705720       -6.8731524159      -13.9694363352  W2        3000            0.0000000000
      9000      3000  TIP3      H2            -23.1061305720       -6.2305924159      -15.1761563352  W2        3000            0.0000000000
      9001      3001  TIP3      OH2           -26.2230905720      -11.2395824159       -7.2573063352  W2        3001            0.0000000000
      9002      3001  TIP3      H1            -27.1514005720      -11.4713924159       -7.2843763352  W2        3001            0.0000000000
      9003      3001  TIP3      H2            -25.7719805720      -12.0166024159       -7.5874263352  W2        3001            0.0000000000
      9004      3002  TIP3      OH2           -33.6797805720       -6.9114224159      -11.1244363352  W2        3002            0.0000000000
      9005      3002  TIP3      H1            -33.1525605720       -6.1379824159      -11.3245563352  W2        3002            0.0000000000
      9006      3002  TIP3      H2            -34.5599305720       -6.6865024159      -11.4260363352  W2        3002            0.0000000000
      9007      3003  TIP3      OH2           -37.9250105720      -12.0490124159      -16.5371963352  W2        3003            0.0000000000
      9008      3003  TIP3      H1            -37.3090205720      -11.4222924159      -16.1577163352  W2        3003            0.0000000000
      9009      3003  TIP3      H2            -38.7867505720      -11.7330324159      -16.2655463352  W2        3003            0.0000000000
      9010      3004  TIP3      OH2           -32.2525505720       -9.2484324159      -11.5480063352  W2        3004            0.0000000000
      9011      3004  TIP3      H1            -32.4935505720       -8.3229924159      -11.5064763352  W2        3004            0.0000000000
      9012      3004  TIP3      H2            -32.9931905720       -9.7073024159      -11.1516163352  W2        3004            0.0000000000
      9013      3005  TIP3      OH2           -31.7378905720       -5.0990724159       -5.2328963352  W2        3005            0.0000000000
      9014      3005  TIP3      H1            -31.3754205720       -4.2445124159       -5.4664563352  W2        3005            0.0000000000
      9015      3005  TIP3      H2            -31.2063705720       -5.3909124159       -4.4922663352  W2        3005            0.0000000000
      9016      3006  TIP3      OH2           -33.5694705720       -4.2266724159      -12.0027863352  W2        3006            0.0000000000
      9017      3006  TIP3      H1            -34.5194205720       -4.1209324159      -11.9514563352  W2        3006            0.0000000000
      9018      3006  TIP3      H2            -33.2176605720       -3.4059324159      -11.6580363352  W2        3006            0.0000000000
      9019      3007  TIP3      OH2           -28.1938105720       -9.0000024159       -5.5323363352  W2        3007            0.0000000000
      9020      3007  TIP3      H1            -28.6196805720       -9.2278324159       -4.7059363352  W2        3007            0.0000000000
      9021      3007  TIP3      H2            -27.6132305720       -9.7388224159       -5.7148063352  W2        3007            0.0000000000
      9022      3008  TIP3      OH2           -25.9909205720       -8.0709524159      -16.4584363352  W2        3008            0.0000000000
      9023      3008  TIP3      H1            -25.6376105720       -8.4509724159      -15.6540863352  W2        3008            0.0000000000
      9024      3008  TIP3      H2            -26.9395705720       -8.1644724159      -16.3715063352  W2        3008            0.0000000000
      9025      3009  TIP3      OH2           -25.5353905720       -4.4480524159       -3.0628563352  W2        3009            0.0000000000
      9026      3009  TIP3      H1            -26.1370705720       -5.0037624159       -3.5582263352  W2        3009            0.0000000000
      9027      3009  TIP3      H2            -25.2540205720       -3.7810724159       -3.6891163352  W2        3009            0.0000000000
      9028      3010  TIP3      OH2           -21.4874805720       -3.5917024159      -16.2574163352  W2        3010            0.0000000000
      9029      3010  TIP3      H1            -20.7436905720       -3.0056524159      -16.3972563352  W2        3010            0.0000000000
      9030      3010  TIP3      H2            -22.1816705720       -3.0231224159      -15.9241763352  W2        3010            0.0000000000
      9031      3011  TIP3      OH2           -37.4128005720      -17.2152824159       -3.6555963352  W2        3011            0.0000000000
      9032      3011  TIP3      H1            -38.3055705720      -16.8767424159       -3.7231963352  W2        3011            0.0000000000
      9033      3011  TIP3      H2            -37.5115205720      -18.0706724159       -3.2375163352  W2        3011            0.0000000000
      9034      3012  TIP3      OH2           -25.1249905720       -9.3987524159      -14.2316463352  W2        3012            0.0000000000
      9035      3012  TIP3      H1            -25.4022305720      -10.1268224159      -13.6755363352  W2        3012            0.0000000000
      9036      3012  TIP3      H2            -24.1976905720       -9.2795524159      -14.0263863352  W2        3012            0.0000000000
      9037      3013  TIP3      OH2           -37.7616005720       -5.4108424159       -5.2206563352  W2        3013            0.0000000000
      9038      3013  TIP3      H1            -37.5445705720       -6.3426024159       -5.2516863352  W2        3013            0.0000000000
      9039      3013  TIP3      H2            -37.5152505720       -5.1363424159       -4.3373763352  W2        3013            0.0000000000
      9040      3014  TIP3      OH2           -31.9001405720       -6.9593424159      -18.0114363352  W2        3014            0.0000000000
      9041      3014  TIP3      H1            -31.6611605720       -7.7075324159      -18.5585463352  W2        3014            0.0000000000
      9042      3014  TIP3      H2            -32.1690105720       -7.3471724159      -17.1786563352  W2        3014            0.0000000000
      9043      3015  TIP3      OH2           -32.9630805720       -7.3889624159      -15.5551763352  W2        3015            0.0000000000
      9044      3015  TIP3      H1            -32.8162805720       -7.9089824159      -14.7650863352  W2        3015            0.0000000000
      9045      3015  TIP3      H2            -32.9659105720       -6.4822024159      -15.2485863352  W2        3015            0.0000000000
      9046      3016  TIP3      OH2           -36.5099705720      -10.1366324159      -15.0446363352  W2        3016            0.0000000000
      9047      3016  TIP3      H1            -37.1960405720       -9.7843824159      -14.4776663352  W2        3016            0.0000000000
      9048      3016  TIP3      H2            -35.9871805720       -9.3736724159      -15.2912063352  W2        3016            0.0000000000
      9049      3017  TIP3      OH2           -28.6784605720      -17.4742524159       -4.7657363352  W2        3017            0.0000000000
      9050      3017  TIP3      H1            -27.9796705720      -17.4003824159       -4.1157663352  W2        3017            0.0000000000
      9051      3017  TIP3      H2            -29.0593205720      -18.3387524159       -4.6114463352  W2        3017            0.0000000000
      9052      3018  TIP3      OH2           -27.8939705720      -17.8220824159      -13.6685063352  W2        3018            0.0000000000
      9053      3018  TIP3      H1            -27.6741405720      -17.3505424159      -14.4719663352  W2        3018            0.0000000000
      9054      3018  TIP3      H2            -27.3355705720      -17.4278224159      -12.9984463352  W2        3018            0.0000000000
      9055      3019  TIP3      OH2           -30.2253605720       -5.6916024159      -14.8057563352  W2        3019            0.0000000000
      9056      3019  TIP3      H1            -31.0417505720       -5.1946324159      -14.7533263352  W2        3019            0.0000000000
      9057      3019  TIP3      H2            -29.6957305720       -5.2162524159      -15.4458763352  W2        3019            0.0000000000
      9058      3020  TIP3      OH2           -30.6939805720      -16.0942024159      -12.8336663352  W2        3020            0.0000000000
      9059      3020  TIP3      H1            -29.8817205720      -15.5898824159      -12.7874963352  W2        3020            0.0000000000
      9060      3020  TIP3      H2            -30.9386805720      -16.2392324159      -11.9197063352  W2        3020            0.0000000000
      9061      3021  TIP3      OH2           -30.1583405720      -15.1079324159       -3.6490063352  W2        3021            0.0000000000
      9062      3021  TIP3      H1            -30.0393105720      -14.5343924159       -2.8919663352  W2        3021            0.0000000000
      9063      3021  TIP3      H2            -29.5028805720      -15.7959924159       -3.5342263352  W2        3021            0.0000000000
      9064      3022  TIP3      OH2           -29.8103105720      -19.0129024159      -11.8955563352  W2        3022            0.0000000000
      9065      3022  TIP3      H1            -30.1569605720      -18.3958424159      -11.2511263352  W2        3022            0.0000000000
      9066      3022  TIP3      H2            -29.1516205720      -18.5123324159      -12.3770063352  W2        3022            0.0000000000
      9067      3023  TIP3      OH2           -32.8870505720       -4.6478824159      -14.8240663352  W2        3023            0.0000000000
      9068      3023  TIP3      H1            -32.7261805720       -3.8481324159      -15.3248063352  W2        3023            0.0000000000
      9069      3023  TIP3      H2            -33.0842705720       -4.3412824159      -13.9390063352  W2        3023            0.0000000000
      9070      3024  TIP3      OH2           -34.1526105720      -17.9499624159      -15.2083063352  W2        3024            0.0000000000
      9071      3024  TIP3      H1            -34.2361305720      -17.0616524159      -14.8616663352  W2        3024            0.0000000000
      9072      3024  TIP3      H2            -33.2625805720      -18.2152924159      -14.9766263352  W2        3024            0.0000000000
      9073      3025  TIP3      OH2           -23.9537605720      -17.2009024159       -2.8140363352  W2        3025            0.0000000000
      9074      3025  TIP3      H1            -24.8701805720      -16.9387324159       -2.9016663352  W2        3025            0.0000000000
      9075      3025  TIP3      H2            -23.6182605720      -17.2040024159       -3.7105063352  W2        3025            0.0000000000
      9076      3026  TIP3      OH2           -25.3516605720      -13.4508024159       -8.7183063352  W2        3026            0.0000000000
      9077      3026  TIP3      H1            -26.1492205720      -13.8657824159       -9.0468063352  W2        3026            0.0000000000
      9078      3026  TIP3      H2            -24.9065505720      -14.1414324159       -8.2272563352  W2        3026            0.0000000000
      9079      3027  TIP3      OH2           -35.8940805720       -7.5227424159      -16.1478563352  W2        3027            0.0000000000
      9080      3027  TIP3      H1            -35.3019305720       -6.8232624159      -15.8716163352  W2        3027            0.0000000000
      9081      3027  TIP3      H2            -35.4347805720       -7.9557924159      -16.8673963352  W2        3027            0.0000000000
      9082      3028  TIP3      OH2           -37.5781605720      -14.8584424159      -17.0319163352  W2        3028            0.0000000000
      9083      3028  TIP3      H1            -37.6229005720      -13.9191324159      -16.8532163352  W2        3028            0.0000000000
      9084      3028  TIP3      H2            -38.4658405720      -15.0939524159      -17.3017063352  W2        3028            0.0000000000
      9085      3029  TIP3      OH2           -24.2652005720       -4.1945524159       -7.0959563352  W2        3029            0.0000000000
      9086      3029  TIP3      H1            -24.4207705720       -3.5161124159       -7.7530263352  W2        3029            0.0000000000
      9087      3029  TIP3      H2            -23.3325605720       -4.1226224159       -6.8928963352  W2        3029            0.0000000000
      9088      3030  TIP3      OH2           -36.7699605720      -20.0767824159       -8.3588163352  W2        3030            0.0000000000
      9089      3030  TIP3      H1            -36.9989805720      -20.0175324159       -9.2863163352  W2        3030            0.0000000000
      9090      3030  TIP3      H2            -37.2126205720      -20.8682324159       -8.0524063352  W2        3030            0.0000000000
      9091      3031  TIP3      OH2           -37.8396305720       -6.1360724159      -12.1982363352  W2        3031            0.0000000000
      9092      3031  TIP3      H1            -38.6717705720       -5.6638024159      -12.1710963352  W2        3031            0.0000000000
      9093      3031  TIP3      H2            -37.2938005720       -5.6263124159      -12.7969263352  W2        3031            0.0000000000
      9094      3032  TIP3      OH2           -38.5512605720       -3.5237024159       -0.8684363352  W2        3032            0.0000000000
      9095      3032  TIP3      H1            -38.0110405720       -3.7403024159       -0.1085163352  W2        3032            0.0000000000
      9096      3032  TIP3      H2            -39.0324605720       -4.3291024159       -1.0581863352  W2        3032            0.0000000000
      9097      3033  TIP3      OH2           -33.9539205720       -4.6042624159        0.7519836648  W2        3033            0.0000000000
      9098      3033  TIP3      H1            -33.1862005720       -5.0631824159        1.0929036648  W2        3033            0.0000000000
      9099      3033  TIP3      H2            -33.9753005720       -4.8302824159       -0.1778963352  W2        3033            0.0000000000
      9100      3034  TIP3      OH2           -29.8619605720       -5.0962024159      -17.8728363352  W2        3034            0.0000000000
      9101      3034  TIP3      H1            -30.5058605720       -5.7273424159      -17.5514663352  W2        3034            0.0000000000
      9102      3034  TIP3      H2            -29.1001305720       -5.6274024159      -18.1044863352  W2        3034            0.0000000000
      9103      3035  TIP3      OH2           -27.3770505720       -6.2241524159       -0.5188663352  W2        3035            0.0000000000
      9104      3035  TIP3      H1            -27.7281005720       -7.0808524159       -0.2758263352  W2        3035            0.0000000000
      9105      3035  TIP3      H2            -26.6507305720       -6.0814824159        0.0880336648  W2        3035            0.0000000000
      9106      3036  TIP3      OH2           -25.2576705720       -5.2792124159      -17.6390363352  W2        3036            0.0000000000
      9107      3036  TIP3      H1            -24.9746305720       -6.0736924159      -17.1863463352  W2        3036            0.0000000000
      9108      3036  TIP3      H2            -24.5178805720       -5.0461124159      -18.1999263352  W2        3036            0.0000000000
      9109      3037  TIP3      OH2           -38.6443105720       -9.7132924159        0.0859936648  W2        3037            0.0000000000
      9110      3037  TIP3      H1            -38.5002605720      -10.6152224159       -0.2003363352  W2        3037            0.0000000000
      9111      3037  TIP3      H2            -39.4165705720       -9.4270824159       -0.4017763352  W2        3037            0.0000000000
      9112      3038  TIP3      OH2           -34.3029405720       -9.3697224159      -17.7815463352  W2        3038            0.0000000000
      9113      3038  TIP3      H1            -34.2385305720      -10.1637624159      -17.2509063352  W2        3038            0.0000000000
      9114      3038  TIP3      H2            -33.6500205720       -9.4884424159      -18.4713463352  W2        3038            0.0000000000
      9115      3039  TIP3      OH2           -31.9887005720       -9.7434824159       -0.4813663352  W2        3039            0.0000000000
      9116      3039  TIP3      H1            -32.3173205720       -9.4726724159       -1.3386263352  W2        3039            0.0000000000
      9117      3039  TIP3      H2            -31.8368805720      -10.6845024159       -0.5688663352  W2        3039            0.0000000000
      9118      3040  TIP3      OH2           -28.9506005720       -8.3225524159      -18.0457463352  W2        3040            0.0000000000
      9119      3040  TIP3      H1            -29.2191905720       -8.1423424159      -17.1448563352  W2        3040            0.0000000000
      9120      3040  TIP3      H2            -29.1570405720       -9.2479324159      -18.1771663352  W2        3040            0.0000000000
      9121      3041  TIP3      OH2           -26.2541805720       -9.8277524159       -3.0981363352  W2        3041            0.0000000000
      9122      3041  TIP3      H1            -25.5087005720       -9.2393824159       -3.2177363352  W2        3041            0.0000000000
      9123      3041  TIP3      H2            -27.0115005720       -9.2457824159       -3.0348263352  W2        3041            0.0000000000
      9124      3042  TIP3      OH2           -37.8116605720      -12.5129624159       -0.4940763352  W2        3042            0.0000000000
      9125      3042  TIP3      H1            -37.4035405720      -13.3703024159       -0.6150163352  W2        3042            0.0000000000
      9126      3042  TIP3      H2            -38.0719005720      -12.4988324159        0.4269536648  W2        3042            0.0000000000
      9127      3043  TIP3      OH2           -33.1535605720      -11.3971024159      -15.4757463352  W2        3043            0.0000000000
      9128      3043  TIP3      H1            -33.6133605720      -11.8812724159      -14.7898963352  W2        3043            0.0000000000
      9129      3043  TIP3      H2            -32.8986905720      -12.0655624159      -16.1116963352  W2        3043            0.0000000000
      9130      3044  TIP3      OH2           -33.8646305720      -13.5043924159       -3.1197863352  W2        3044            0.0000000000
      9131      3044  TIP3      H1            -34.4830205720      -12.8297324159       -2.8393163352  W2        3044            0.0000000000
      9132      3044  TIP3      H2            -33.5205105720      -13.1830024159       -3.9531663352  W2        3044            0.0000000000
      9133      3045  TIP3      OH2           -32.0825205720      -13.1539224159      -17.2134263352  W2        3045            0.0000000000
      9134      3045  TIP3      H1            -32.2630205720      -13.3088024159      -18.1405963352  W2        3045            0.0000000000
      9135      3045  TIP3      H2            -31.1324705720      -13.0460524159      -17.1686363352  W2        3045            0.0000000000
      9136      3046  TIP3      OH2           -28.8448105720      -11.0328624159        0.1576936648  W2        3046            0.0000000000
      9137      3046  TIP3      H1            -27.8916905720      -10.9489524159        0.1302936648  W2        3046            0.0000000000
      9138      3046  TIP3      H2            -29.0053505720      -11.7446824159        0.7771836648  W2        3046            0.0000000000
      9139      3047  TIP3      OH2           -22.6926905720      -10.7995024159      -17.7676163352  W2        3047            0.0000000000
      9140      3047  TIP3      H1            -22.9662105720      -11.2239524159      -18.5807863352  W2        3047            0.0000000000
      9141      3047  TIP3      H2            -22.6532805720       -9.8680524159      -17.9845763352  W2        3047            0.0000000000
      9142      3048  TIP3      OH2           -33.5252605720      -16.1493124159       -2.0374763352  W2        3048            0.0000000000
      9143      3048  TIP3      H1            -33.3751705720      -16.8781824159       -2.6395063352  W2        3048            0.0000000000
      9144      3048  TIP3      H2            -33.5230205720      -15.3721424159       -2.5962563352  W2        3048            0.0000000000
      9145      3049  TIP3      OH2           -33.1126905720      -17.7797324159       -4.5447363352  W2        3049            0.0000000000
      9146      3049  TIP3      H1            -32.5769405720      -17.3280624159       -5.1968063352  W2        3049            0.0000000000
      9147      3049  TIP3      H2            -33.9647305720      -17.8877524159       -4.9673263352  W2        3049            0.0000000000
      9148      3050  TIP3      OH2           -31.5308505720      -12.3401124159       -4.3052163352  W2        3050            0.0000000000
      9149      3050  TIP3      H1            -30.7803705720      -12.4963624159       -4.8784363352  W2        3050            0.0000000000
      9150      3050  TIP3      H2            -31.8700205720      -11.4884524159       -4.5806663352  W2        3050            0.0000000000
      9151      3051  TIP3      OH2           -27.1152305720      -14.5249324159        0.7233136648  W2        3051            0.0000000000
      9152      3051  TIP3      H1            -26.9231005720      -15.4559924159        0.6117636648  W2        3051            0.0000000000
      9153      3051  TIP3      H2            -26.2576005720      -14.0999824159        0.7128536648  W2        3051            0.0000000000
      9154      3052  TIP3      OH2           -25.7985105720      -11.7364124159       -1.1994163352  W2        3052            0.0000000000
      9155      3052  TIP3      H1            -26.0800105720      -11.0269524159       -1.7770363352  W2        3052            0.0000000000
      9156      3052  TIP3      H2            -24.8560805720      -11.8091124159       -1.3502963352  W2        3052            0.0000000000
      9157      3053  TIP3      OH2           -35.0466305720      -14.9509624159       -0.1259163352  W2        3053            0.0000000000
      9158      3053  TIP3      H1            -35.8137305720      -15.4834824159       -0.3361563352  W2        3053            0.0000000000
      9159      3053  TIP3      H2            -34.3677305720      -15.2609224159       -0.7252863352  W2        3053            0.0000000000
      9160      3054  TIP3      OH2           -32.3071405720      -20.3231624159       -4.1133763352  W2        3054            0.0000000000
      9161      3054  TIP3      H1            -32.4051805720      -19.3768424159       -4.2187563352  W2        3054            0.0000000000
      9162      3054  TIP3      H2            -33.0495205720      -20.6957824159       -4.5890263352  W2        3054            0.0000000000
      9163      3055  TIP3      OH2           -31.0430905720      -16.0016224159       -0.5495363352  W2        3055            0.0000000000
      9164      3055  TIP3      H1            -31.2785505720      -16.2209524159        0.3519536648  W2        3055            0.0000000000
      9165      3055  TIP3      H2            -31.8264005720      -16.2085024159       -1.0592863352  W2        3055            0.0000000000
      9166      3056  TIP3      OH2           -28.3274305720      -16.8742724159       -1.4741863352  W2        3056            0.0000000000
      9167      3056  TIP3      H1            -29.2748905720      -16.8423024159       -1.3418563352  W2        3056            0.0000000000
      9168      3056  TIP3      H2            -28.0147605720      -17.4995624159       -0.8203663352  W2        3056            0.0000000000
      9169      3057  TIP3      OH2           -26.6932805720      -18.2401624159        0.5310036648  W2        3057            0.0000000000
      9170      3057  TIP3      H1            -26.7901005720      -19.1924324159        0.5251936648  W2        3057            0.0000000000
      9171      3057  TIP3      H2            -27.0149705720      -17.9714824159        1.3915536648  W2        3057            0.0000000000
      9172      3058  TIP3      OH2           -36.8663505720      -17.0305824159       -0.4214463352  W2        3058            0.0000000000
      9173      3058  TIP3      H1            -36.6546105720      -17.7369724159       -1.0316963352  W2        3058            0.0000000000
      9174      3058  TIP3      H2            -36.9776005720      -17.4679824159        0.4226736648  W2        3058            0.0000000000
      9175      3059  TIP3      OH2           -32.0853305720      -21.0294224159       -1.4420963352  W2        3059            0.0000000000
      9176      3059  TIP3      H1            -31.3734905720      -21.6692024159       -1.4561863352  W2        3059            0.0000000000
      9177      3059  TIP3      H2            -32.1862905720      -20.7625924159       -2.3557863352  W2        3059            0.0000000000
      9178      3060  TIP3      OH2           -31.7315805720      -19.3465824159        0.6115336648  W2        3060            0.0000000000
      9179      3060  TIP3      H1            -31.8633605720      -19.8222024159       -0.2086163352  W2        3060            0.0000000000
      9180      3060  TIP3      H2            -32.3308405720      -18.6022224159        0.5562436648  W2        3060            0.0000000000
      9181      3061  TIP3      OH2           -32.1853505720       -2.4635524159      -16.2120663352  W2        3061            0.0000000000
      9182      3061  TIP3      H1            -31.2522805720       -2.3056824159      -16.0682263352  W2        3061            0.0000000000
      9183      3061  TIP3      H2            -32.4494705720       -1.7882524159      -16.8369163352  W2        3061            0.0000000000
      9184      3062  TIP3      OH2           -38.6168605720       -7.8271724159      -16.7292563352  W2        3062            0.0000000000
      9185      3062  TIP3      H1            -37.7029405720       -7.7482824159      -16.4558663352  W2        3062            0.0000000000
      9186      3062  TIP3      H2            -38.6095505720       -8.5142124159      -17.3956963352  W2        3062            0.0000000000
      9187      3063  TIP3      OH2           -39.9678005720       -2.4343224159      -11.6518663352  W2        3063            0.0000000000
      9188      3063  TIP3      H1            -40.6150905720       -2.8961524159      -12.1847463352  W2        3063            0.0000000000
      9189      3063  TIP3      H2            -39.6133405720       -3.1059924159      -11.0692463352  W2        3063            0.0000000000
      9190      3064  TIP3      OH2           -39.0978805720       -4.3536224159       -9.8472463352  W2        3064            0.0000000000
      9191      3064  TIP3      H1            -39.4322005720       -5.2338924159       -9.6752263352  W2        3064            0.0000000000
      9192      3064  TIP3      H2            -38.8756405720       -4.0081224159       -8.9826863352  W2        3064            0.0000000000
      9193      3065  TIP3      OH2           -21.5494005720       -3.5439824159       -6.8667663352  W2        3065            0.0000000000
      9194      3065  TIP3      H1            -21.5707305720       -3.3591424159       -5.9278263352  W2        3065            0.0000000000
      9195      3065  TIP3      H2            -20.8587805720       -2.9755824159       -7.2076263352  W2        3065            0.0000000000
      9196      3066  TIP3      OH2           -21.9861105720       -3.9768724159       -3.9448563352  W2        3066            0.0000000000
      9197      3066  TIP3      H1            -22.4732405720       -4.7124624159       -4.3161163352  W2        3066            0.0000000000
      9198      3066  TIP3      H2            -21.4368405720       -4.3704824159       -3.2669163352  W2        3066            0.0000000000
      9199      3067  TIP3      OH2           -23.5353805720       -8.1870624159        0.6931736648  W2        3067            0.0000000000
      9200      3067  TIP3      H1            -24.4012705720       -8.2920924159        1.0874036648  W2        3067            0.0000000000
      9201      3067  TIP3      H2            -23.1587905720       -7.4287324159        1.1396436648  W2        3067            0.0000000000
      9202      3068  TIP3      OH2           -22.2344105720       -9.9306924159      -13.7925763352  W2        3068            0.0000000000
      9203      3068  TIP3      H1            -21.3842705720       -9.5096024159      -13.6654163352  W2        3068            0.0000000000
      9204      3068  TIP3      H2            -22.2289005720      -10.6706824159      -13.1854363352  W2        3068            0.0000000000
      9205      3069  TIP3      OH2           -21.8398505720      -11.8769524159      -11.9690063352  W2        3069            0.0000000000
      9206      3069  TIP3      H1            -22.5663905720      -12.3566924159      -11.5712463352  W2        3069            0.0000000000
      9207      3069  TIP3      H2            -21.2585205720      -11.6714824159      -11.2368463352  W2        3069            0.0000000000
      9208      3070  TIP3      OH2           -22.0807305720       -9.0922024159       -7.0212463352  W2        3070            0.0000000000
      9209      3070  TIP3      H1            -21.2473105720       -9.4702024159       -7.3018863352  W2        3070            0.0000000000
      9210      3070  TIP3      H2            -21.9687005720       -8.1490824159       -7.1403363352  W2        3070            0.0000000000
      9211      3071  TIP3      OH2           -23.5945005720       -6.2144524159       -4.7144063352  W2        3071            0.0000000000
      9212      3071  TIP3      H1            -24.2419705720       -5.8893024159       -4.0888863352  W2        3071            0.0000000000
      9213      3071  TIP3      H2            -24.1121005720       -6.6546824159       -5.3885763352  W2        3071            0.0000000000
      9214      3072  TIP3      OH2           -21.5715405720      -11.9761024159      -15.5778763352  W2        3072            0.0000000000
      9215      3072  TIP3      H1            -22.0934305720      -11.6196924159      -16.2967863352  W2        3072            0.0000000000
      9216      3072  TIP3      H2            -21.6046205720      -11.3013224159      -14.8997863352  W2        3072            0.0000000000
      9217      3073  TIP3      OH2           -23.2226405720      -14.7365424159      -17.0271663352  W2        3073            0.0000000000
      9218      3073  TIP3      H1            -23.1262005720      -14.0698424159      -17.7071963352  W2        3073            0.0000000000
      9219      3073  TIP3      H2            -23.3626805720      -15.5519124159      -17.5086163352  W2        3073            0.0000000000
      9220      3074  TIP3      OH2           -24.0531705720      -13.3563024159      -11.4061363352  W2        3074            0.0000000000
      9221      3074  TIP3      H1            -24.2032905720      -14.3014424159      -11.4263563352  W2        3074            0.0000000000
      9222      3074  TIP3      H2            -24.4067205720      -13.0751624159      -10.5622263352  W2        3074            0.0000000000
      9223      3075  TIP3      OH2           -39.0179305720      -11.2780824159       -7.3957563352  W2        3075            0.0000000000
      9224      3075  TIP3      H1            -38.8336405720      -11.3599124159       -8.3314663352  W2        3075            0.0000000000
      9225      3075  TIP3      H2            -38.1686405720      -11.4023824159       -6.9721163352  W2        3075            0.0000000000
      9226      3076  TIP3      OH2           -23.1968805720      -11.3859724159       -1.7673063352  W2        3076            0.0000000000
      9227      3076  TIP3      H1            -22.6141505720      -12.1207424159       -1.5755863352  W2        3076            0.0000000000
      9228      3076  TIP3      H2            -22.6329505720      -10.6139424159       -1.7207263352  W2        3076            0.0000000000
      9229      3077  TIP3      OH2           -21.7001705720      -13.4833924159       -1.0827663352  W2        3077            0.0000000000
      9230      3077  TIP3      H1            -22.5635005720      -13.8621824159       -1.2482963352  W2        3077            0.0000000000
      9231      3077  TIP3      H2            -21.0958005720      -14.2219124159       -1.1571863352  W2        3077            0.0000000000
      9232      3078  TIP3      OH2           -23.9752605720      -17.3285624159      -17.9096163352  W2        3078            0.0000000000
      9233      3078  TIP3      H1            -23.3646805720      -17.6998824159      -17.2727963352  W2        3078            0.0000000000
      9234      3078  TIP3      H2            -24.8121105720      -17.7498724159      -17.7136163352  W2        3078            0.0000000000
      9235      3079  TIP3      OH2           -24.3426905720      -15.7737224159      -12.9436263352  W2        3079            0.0000000000
      9236      3079  TIP3      H1            -24.0629805720      -16.6806824159      -12.8194563352  W2        3079            0.0000000000
      9237      3079  TIP3      H2            -23.5835205720      -15.3395724159      -13.3327063352  W2        3079            0.0000000000
      9238      3080  TIP3      OH2           -23.7308605720      -15.1919824159       -7.5077363352  W2        3080            0.0000000000
      9239      3080  TIP3      H1            -22.7980605720      -14.9799924159       -7.5421363352  W2        3080            0.0000000000
      9240      3080  TIP3      H2            -23.9661105720      -15.0907724159       -6.5854363352  W2        3080            0.0000000000
      9241      3081  TIP3      OH2           -23.7016705720      -14.4554524159       -4.7317963352  W2        3081            0.0000000000
      9242      3081  TIP3      H1            -24.5445405720      -14.1874124159       -4.3658163352  W2        3081            0.0000000000
      9243      3081  TIP3      H2            -23.2592405720      -13.6332624159       -4.9426863352  W2        3081            0.0000000000
      9244      3082  TIP3      OH2           -39.4204505720      -16.0075824159       -1.2548763352  W2        3082            0.0000000000
      9245      3082  TIP3      H1            -38.5009605720      -16.1297524159       -1.0185663352  W2        3082            0.0000000000
      9246      3082  TIP3      H2            -39.8700005720      -16.7576124159       -0.8655263352  W2        3082            0.0000000000
      9247      3083  TIP3      OH2           -21.4185105720      -20.4754324159        0.6217036648  W2        3083            0.0000000000
      9248      3083  TIP3      H1            -21.0688105720      -21.1290824159        0.0161736648  W2        3083            0.0000000000
      9249      3083  TIP3      H2            -21.2715605720      -19.6380224159        0.1819636648  W2        3083            0.0000000000
      9250      3084  TIP3      OH2           -23.7292105720      -18.5107924159      -12.8954263352  W2        3084            0.0000000000
      9251      3084  TIP3      H1            -23.5467105720      -18.9596424159      -12.0699263352  W2        3084            0.0000000000
      9252      3084  TIP3      H2            -24.3289205720      -19.0953524159      -13.3589663352  W2        3084            0.0000000000
      9253      3085  TIP3      OH2           -38.1992005720      -17.6954224159       -8.3635863352  W2        3085            0.0000000000
      9254      3085  TIP3      H1            -37.7540405720      -18.4871724159       -8.0616163352  W2        3085            0.0000000000
      9255      3085  TIP3      H2            -37.7329005720      -16.9789024159       -7.9330263352  W2        3085            0.0000000000
      9256      3086  TIP3      OH2           -39.8951705720      -14.6961224159       -7.2945663352  W2        3086            0.0000000000
      9257      3086  TIP3      H1            -39.4031905720      -14.9170724159       -8.0853663352  W2        3086            0.0000000000
      9258      3086  TIP3      H2            -39.5330805720      -13.8557824159       -7.0136163352  W2        3086            0.0000000000
      9259      3087  TIP3      OH2           -21.8987905720      -18.3659724159       -1.0291663352  W2        3087            0.0000000000
      9260      3087  TIP3      H1            -22.8162205720      -18.0952624159       -1.0648163352  W2        3087            0.0000000000
      9261      3087  TIP3      H2            -21.7758505720      -18.9011324159       -1.8131963352  W2        3087            0.0000000000
      9262      3088  TIP3      OH2           -21.8625905720      -18.4429824159      -16.3673963352  W2        3088            0.0000000000
      9263      3088  TIP3      H1            -21.4503305720      -19.1644124159      -16.8425963352  W2        3088            0.0000000000
      9264      3088  TIP3      H2            -21.1809405720      -17.7735224159      -16.3089663352  W2        3088            0.0000000000
      9265      3089  TIP3      OH2           -39.5815205720      -18.4382124159      -13.2403263352  W2        3089            0.0000000000
      9266      3089  TIP3      H1            -40.5066805720      -18.2295524159      -13.3697763352  W2        3089            0.0000000000
      9267      3089  TIP3      H2            -39.1275305720      -17.9541324159      -13.9300963352  W2        3089            0.0000000000
      9268      3090  TIP3      OH2           -24.8108005720       -3.4540424159      -11.2945863352  W2        3090            0.0000000000
      9269      3090  TIP3      H1            -24.1585105720       -3.8018324159      -11.9026763352  W2        3090            0.0000000000
      9270      3090  TIP3      H2            -24.3004205720       -2.9657224159      -10.6486163352  W2        3090            0.0000000000
      9271      3091  TIP3      OH2           -39.6179805720      -19.7003124159       -4.8960763352  W2        3091            0.0000000000
      9272      3091  TIP3      H1            -40.2829305720      -19.9462824159       -4.2529863352  W2        3091            0.0000000000
      9273      3091  TIP3      H2            -40.0608505720      -19.0782724159       -5.4732763352  W2        3091            0.0000000000
      9274      3092  TIP3      OH2           -37.4260505720       -6.5249024159       -0.7514963352  W2        3092            0.0000000000
      9275      3092  TIP3      H1            -38.2468005720       -6.3502524159       -1.2120263352  W2        3092            0.0000000000
      9276      3092  TIP3      H2            -37.6782705720       -6.5984324159        0.1689436648  W2        3092            0.0000000000
      9277      3093  TIP3      OH2           -34.4717605720       -5.5507824159       -4.4930963352  W2        3093            0.0000000000
      9278      3093  TIP3      H1            -34.8966505720       -4.7409324159       -4.7756363352  W2        3093            0.0000000000
      9279      3093  TIP3      H2            -33.5674805720       -5.4653724159       -4.7951163352  W2        3093            0.0000000000
      9280      3094  TIP3      OH2           -30.1606205720       -4.1517824159       -1.5337263352  W2        3094            0.0000000000
      9281      3094  TIP3      H1            -29.9758705720       -4.4851724159       -0.6556963352  W2        3094            0.0000000000
      9282      3094  TIP3      H2            -29.3141705720       -3.8419224159       -1.8558063352  W2        3094            0.0000000000
      9283      3095  TIP3      OH2           -27.8155805720       -2.8658924159       -2.2895863352  W2        3095            0.0000000000
      9284      3095  TIP3      H1            -27.1386905720       -3.4986624159       -2.5296663352  W2        3095            0.0000000000
      9285      3095  TIP3      H2            -27.4937005720       -2.4648424159       -1.4822563352  W2        3095            0.0000000000
      9286      3096  TIP3      OH2           -22.8982005720      -20.2763424159       -3.2100863352  W2        3096            0.0000000000
      9287      3096  TIP3      H1            -23.7108505720      -19.9513124159       -3.5976163352  W2        3096            0.0000000000
      9288      3096  TIP3      H2            -22.6653505720      -21.0364924159       -3.7431763352  W2        3096            0.0000000000
      9289      3097  TIP3      OH2           -37.0700905720       -2.2943924159       -4.4455663352  W2        3097            0.0000000000
      9290      3097  TIP3      H1            -37.7904505720       -1.8542924159       -4.8967963352  W2        3097            0.0000000000
      9291      3097  TIP3      H2            -37.4356905720       -2.5449224159       -3.5971663352  W2        3097            0.0000000000
      9292      3098  TIP3      OH2           -34.6028305720       -2.6940024159       -5.4158463352  W2        3098            0.0000000000
      9293      3098  TIP3      H1            -35.4676105720       -2.6221524159       -5.0118363352  W2        3098            0.0000000000
      9294      3098  TIP3      H2            -34.6579305720       -2.1472724159       -6.1995963352  W2        3098            0.0000000000
      9295      3099  TIP3      OH2           -29.8922705720       -2.8061124159       -6.2402463352  W2        3099            0.0000000000
      9296      3099  TIP3      H1            -30.3488705720       -2.2771424159       -6.8944063352  W2        3099            0.0000000000
      9297      3099  TIP3      H2            -29.7294705720       -2.2029724159       -5.5150163352  W2        3099            0.0000000000
      9298      3100  TIP3      OH2           -27.5646405720       -3.9281524159       -5.2952163352  W2        3100            0.0000000000
      9299      3100  TIP3      H1            -28.4692705720       -3.7631324159       -5.5610063352  W2        3100            0.0000000000
      9300      3100  TIP3      H2            -27.1357805720       -3.0749324159       -5.3608763352  W2        3100            0.0000000000
      9301      3101  TIP3      OH2           -24.9604505720       -2.3582424159       -5.0004363352  W2        3101            0.0000000000
      9302      3101  TIP3      H1            -25.1422505720       -1.4423524159       -5.2109463352  W2        3101            0.0000000000
      9303      3101  TIP3      H2            -24.7836705720       -2.7685324159       -5.8469763352  W2        3101            0.0000000000
      9304      3102  TIP3      OH2           -37.6552805720       -3.6711424159       -7.5353863352  W2        3102            0.0000000000
      9305      3102  TIP3      H1            -37.6736805720       -4.0966324159       -6.6781563352  W2        3102            0.0000000000
      9306      3102  TIP3      H2            -36.8504905720       -3.9896424159       -7.9441663352  W2        3102            0.0000000000
      9307      3103  TIP3      OH2           -35.5139705720       -4.9612724159       -8.8803963352  W2        3103            0.0000000000
      9308      3103  TIP3      H1            -35.7329005720       -5.8775324159       -8.7107963352  W2        3103            0.0000000000
      9309      3103  TIP3      H2            -34.6897505720       -4.8212324159       -8.4142563352  W2        3103            0.0000000000
      9310      3104  TIP3      OH2           -32.9767205720       -4.4913424159       -8.0315963352  W2        3104            0.0000000000
      9311      3104  TIP3      H1            -32.7641505720       -5.3794424159       -8.3185063352  W2        3104            0.0000000000
      9312      3104  TIP3      H2            -32.9122105720       -4.5255724159       -7.0771963352  W2        3104            0.0000000000
      9313      3105  TIP3      OH2           -29.4683505720      -18.8272824159       -8.8872663352  W2        3105            0.0000000000
      9314      3105  TIP3      H1            -30.1426705720      -19.4567224159       -8.6316863352  W2        3105            0.0000000000
      9315      3105  TIP3      H2            -28.9044305720      -19.3113924159       -9.4904763352  W2        3105            0.0000000000
      9316      3106  TIP3      OH2           -24.3256305720      -20.7198824159       -8.7745563352  W2        3106            0.0000000000
      9317      3106  TIP3      H1            -23.7218705720      -20.1723424159       -9.2764563352  W2        3106            0.0000000000
      9318      3106  TIP3      H2            -25.1954305720      -20.4008424159       -9.0151463352  W2        3106            0.0000000000
      9319      3107  TIP3      OH2           -22.5985905720      -19.5810124159      -10.4414663352  W2        3107            0.0000000000
      9320      3107  TIP3      H1            -21.9868405720      -20.0954424159      -10.9681063352  W2        3107            0.0000000000
      9321      3107  TIP3      H2            -22.2162505720      -18.7038024159      -10.4180263352  W2        3107            0.0000000000
      9322      3108  TIP3      OH2           -37.1416005720      -20.1932524159      -11.0652763352  W2        3108            0.0000000000
      9323      3108  TIP3      H1            -37.9186205720      -20.4277624159      -11.5726863352  W2        3108            0.0000000000
      9324      3108  TIP3      H2            -36.6112405720      -20.9900424159      -11.0564763352  W2        3108            0.0000000000
      9325      3109  TIP3      OH2           -38.3052605720      -20.3954424159      -15.2616663352  W2        3109            0.0000000000
      9326      3109  TIP3      H1            -37.8661905720      -19.7843924159      -15.8533163352  W2        3109            0.0000000000
      9327      3109  TIP3      H2            -38.9390205720      -19.8570324159      -14.7876663352  W2        3109            0.0000000000
      9328      3110  TIP3      OH2           -32.5623405720      -20.2665424159      -11.2519663352  W2        3110            0.0000000000
      9329      3110  TIP3      H1            -31.6880005720      -19.8781124159      -11.2815363352  W2        3110            0.0000000000
      9330      3110  TIP3      H2            -32.6982605720      -20.4817624159      -10.3292463352  W2        3110            0.0000000000
      9331      3111  TIP3      OH2           -27.0055005720      -20.2365624159       -9.6027963352  W2        3111            0.0000000000
      9332      3111  TIP3      H1            -26.9293405720      -20.1414024159      -10.5521963352  W2        3111            0.0000000000
      9333      3111  TIP3      H2            -27.2805805720      -21.1442724159       -9.4738863352  W2        3111            0.0000000000
      9334      3112  TIP3      OH2           -25.6522405720      -20.2107824159      -13.9102963352  W2        3112            0.0000000000
      9335      3112  TIP3      H1            -26.3551305720      -19.5958624159      -14.1201563352  W2        3112            0.0000000000
      9336      3112  TIP3      H2            -26.0971005720      -21.0481124159      -13.7792063352  W2        3112            0.0000000000
      9337      3113  TIP3      OH2           -38.4043105720       -4.4472224159      -14.3641563352  W2        3113            0.0000000000
      9338      3113  TIP3      H1            -39.0893205720       -4.4853324159      -15.0316463352  W2        3113            0.0000000000
      9339      3113  TIP3      H2            -38.4005905720       -3.5344624159      -14.0759463352  W2        3113            0.0000000000
      9340      3114  TIP3      OH2           -36.4443505720      -18.4792924159      -16.8192563352  W2        3114            0.0000000000
      9341      3114  TIP3      H1            -35.9530105720      -19.1090524159      -17.3467063352  W2        3114            0.0000000000
      9342      3114  TIP3      H2            -35.8207205720      -18.1833524159      -16.1561363352  W2        3114            0.0000000000
      9343      3115  TIP3      OH2           -31.4183405720      -18.1861424159      -14.3622063352  W2        3115            0.0000000000
      9344      3115  TIP3      H1            -31.2402105720      -18.8328224159      -13.6793463352  W2        3115            0.0000000000
      9345      3115  TIP3      H2            -31.4717205720      -17.3523724159      -13.8950963352  W2        3115            0.0000000000
      9346      3116  TIP3      OH2           -29.5399605720       -3.2377324159      -15.9665363352  W2        3116            0.0000000000
      9347      3116  TIP3      H1            -28.6739405720       -2.8709924159      -16.1447163352  W2        3116            0.0000000000
      9348      3116  TIP3      H2            -29.7866805720       -3.6769324159      -16.7804563352  W2        3116            0.0000000000
      9349      3117  TIP3      OH2           -22.8310005720       -3.6747024159      -13.2874263352  W2        3117            0.0000000000
      9350      3117  TIP3      H1            -23.0252905720       -4.4224924159      -13.8524663352  W2        3117            0.0000000000
      9351      3117  TIP3      H2            -22.8699905720       -2.9166924159      -13.8706363352  W2        3117            0.0000000000
      9352      3118  TIP3      OH2           -37.1838005720      -19.6790624159       -1.5476563352  W2        3118            0.0000000000
      9353      3118  TIP3      H1            -37.5499805720      -20.4448024159       -1.1051863352  W2        3118            0.0000000000
      9354      3118  TIP3      H2            -36.2709505720      -19.6500424159       -1.2611463352  W2        3118            0.0000000000
      9355      3119  TIP3      OH2           -35.2107205720      -20.3286224159       -0.0119463352  W2        3119            0.0000000000
      9356      3119  TIP3      H1            -34.3123605720      -20.6026024159       -0.1966063352  W2        3119            0.0000000000
      9357      3119  TIP3      H2            -35.5974105720      -21.0710224159        0.4523136648  W2        3119            0.0000000000
      9358      3120  TIP3      OH2           -36.5861905720       -3.5271424159      -17.3389463352  W2        3120            0.0000000000
      9359      3120  TIP3      H1            -36.8537305720       -3.2408524159      -16.4656363352  W2        3120            0.0000000000
      9360      3120  TIP3      H2            -35.8149305720       -4.0732224159      -17.1866963352  W2        3120            0.0000000000
      9361      3121  TIP3      OH2           -26.7894905720      -20.9960924159        0.1703336648  W2        3121            0.0000000000
      9362      3121  TIP3      H1            -26.7127705720      -21.4220224159        1.0241036648  W2        3121            0.0000000000
      9363      3121  TIP3      H2            -25.8958305720      -20.9826224159       -0.1723163352  W2        3121            0.0000000000
      9364      3122  TIP3      OH2           -23.6133805720       -4.9234624159       -1.1372463352  W2        3122            0.0000000000
      9365      3122  TIP3      H1            -24.3951905720       -5.1096624159       -1.6571863352  W2        3122            0.0000000000
      9366      3122  TIP3      H2            -23.6853905720       -3.9940324159       -0.9199963352  W2        3122            0.0000000000
      9367      3123  TIP3      OH2            -9.2073405720      -11.0370224159      -11.1065263352  W2        3123            0.0000000000
      9368      3123  TIP3      H1             -9.1182305720      -10.0932024159      -11.2388163352  W2        3123            0.0000000000
      9369      3123  TIP3      H2             -9.8455805720      -11.3123824159      -11.7645863352  W2        3123            0.0000000000
      9370      3124  TIP3      OH2           -10.2742105720      -11.7819524159       -7.6877063352  W2        3124            0.0000000000
      9371      3124  TIP3      H1            -10.3124605720      -12.4283224159       -6.9827463352  W2        3124            0.0000000000
      9372      3124  TIP3      H2            -10.5965605720      -12.2485124159       -8.4588363352  W2        3124            0.0000000000
      9373      3125  TIP3      OH2           -17.9057105720      -12.1677424159       -6.0947163352  W2        3125            0.0000000000
      9374      3125  TIP3      H1            -17.8645005720      -12.7934124159       -5.3714763352  W2        3125            0.0000000000
      9375      3125  TIP3      H2            -17.2029405720      -11.5438824159       -5.9126763352  W2        3125            0.0000000000
      9376      3126  TIP3      OH2            -6.5681905720       -8.8429124159       -9.3861963352  W2        3126            0.0000000000
      9377      3126  TIP3      H1             -7.0089205720       -9.5633124159       -8.9356363352  W2        3126            0.0000000000
      9378      3126  TIP3      H2             -6.5812205720       -8.1221924159       -8.7564263352  W2        3126            0.0000000000
      9379      3127  TIP3      OH2           -16.9824005720       -7.7178524159       -7.5598063352  W2        3127            0.0000000000
      9380      3127  TIP3      H1            -17.3518805720       -8.5198024159       -7.9293763352  W2        3127            0.0000000000
      9381      3127  TIP3      H2            -16.0412905720       -7.8863624159       -7.5134663352  W2        3127            0.0000000000
      9382      3128  TIP3      OH2           -20.3723505720      -14.0575924159      -12.1669263352  W2        3128            0.0000000000
      9383      3128  TIP3      H1            -20.8200105720      -13.2117224159      -12.1852763352  W2        3128            0.0000000000
      9384      3128  TIP3      H2            -20.9332305720      -14.6371724159      -12.6824163352  W2        3128            0.0000000000
      9385      3129  TIP3      OH2           -19.6617405720      -11.8956324159      -10.0411263352  W2        3129            0.0000000000
      9386      3129  TIP3      H1            -19.4483905720      -12.6654724159       -9.5138263352  W2        3129            0.0000000000
      9387      3129  TIP3      H2            -18.9239805720      -11.8059624159      -10.6443663352  W2        3129            0.0000000000
      9388      3130  TIP3      OH2            -9.4566405720       -3.7387424159       -9.1741563352  W2        3130            0.0000000000
      9389      3130  TIP3      H1             -8.8370005720       -4.4152724159       -9.4472363352  W2        3130            0.0000000000
      9390      3130  TIP3      H2             -9.6649005720       -3.9566624159       -8.2656663352  W2        3130            0.0000000000
      9391      3131  TIP3      OH2           -11.8847705720       -9.3498124159       -7.2816063352  W2        3131            0.0000000000
      9392      3131  TIP3      H1            -11.5809805720      -10.0356724159       -7.8761963352  W2        3131            0.0000000000
      9393      3131  TIP3      H2            -11.1633705720       -9.2309424159       -6.6638063352  W2        3131            0.0000000000
      9394      3132  TIP3      OH2            -3.2217905720      -17.7482824159       -6.4209863352  W2        3132            0.0000000000
      9395      3132  TIP3      H1             -3.1725705720      -17.1381624159       -5.6850763352  W2        3132            0.0000000000
      9396      3132  TIP3      H2             -2.7962805720      -17.2871924159       -7.1438763352  W2        3132            0.0000000000
      9397      3133  TIP3      OH2            -8.7440705720      -14.9555724159       -6.9541263352  W2        3133            0.0000000000
      9398      3133  TIP3      H1             -8.6014805720      -15.9018724159       -6.9339663352  W2        3133            0.0000000000
      9399      3133  TIP3      H2             -8.8501705720      -14.7485924159       -7.8826363352  W2        3133            0.0000000000
      9400      3134  TIP3      OH2           -15.5892405720      -16.8539324159       -9.6816463352  W2        3134            0.0000000000
      9401      3134  TIP3      H1            -15.5461305720      -15.9940824159      -10.1000163352  W2        3134            0.0000000000
      9402      3134  TIP3      H2            -16.0468305720      -17.4064624159      -10.3153263352  W2        3134            0.0000000000
      9403      3135  TIP3      OH2            -7.8669705720      -16.7233724159      -11.2808163352  W2        3135            0.0000000000
      9404      3135  TIP3      H1             -7.2205405720      -17.0520524159      -10.6560563352  W2        3135            0.0000000000
      9405      3135  TIP3      H2             -7.3570305720      -16.2054724159      -11.9036763352  W2        3135            0.0000000000
      9406      3136  TIP3      OH2           -18.9690905720      -14.4573524159       -8.9195063352  W2        3136            0.0000000000
      9407      3136  TIP3      H1            -18.3154305720      -15.0071824159       -8.4874963352  W2        3136            0.0000000000
      9408      3136  TIP3      H2            -18.9451605720      -14.7314524159       -9.8363063352  W2        3136            0.0000000000
      9409      3137  TIP3      OH2           -13.8126405720      -12.9072224159       -9.7043563352  W2        3137            0.0000000000
      9410      3137  TIP3      H1            -13.1965405720      -13.4336824159       -9.1949563352  W2        3137            0.0000000000
      9411      3137  TIP3      H2            -14.3987605720      -13.5473524159      -10.1079963352  W2        3137            0.0000000000
      9412      3138  TIP3      OH2            -2.8303305720      -16.2703624159       -4.1850063352  W2        3138            0.0000000000
      9413      3138  TIP3      H1             -3.5188705720      -15.6122924159       -4.2803463352  W2        3138            0.0000000000
      9414      3138  TIP3      H2             -2.8148705720      -16.4675724159       -3.2484663352  W2        3138            0.0000000000
      9415      3139  TIP3      OH2           -16.7790505720      -17.9360924159       -5.6075663352  W2        3139            0.0000000000
      9416      3139  TIP3      H1            -16.9978805720      -17.4060324159       -6.3739663352  W2        3139            0.0000000000
      9417      3139  TIP3      H2            -17.4469605720      -17.7095424159       -4.9604263352  W2        3139            0.0000000000
      9418      3140  TIP3      OH2            -9.4100705720       -8.4359824159      -12.0636563352  W2        3140            0.0000000000
      9419      3140  TIP3      H1             -9.7055605720       -8.7587524159      -12.9149663352  W2        3140            0.0000000000
      9420      3140  TIP3      H2             -9.7342905720       -7.5363124159      -12.0223963352  W2        3140            0.0000000000
      9421      3141  TIP3      OH2           -14.2099105720      -10.2605224159       -5.3201963352  W2        3141            0.0000000000
      9422      3141  TIP3      H1            -14.9500005720       -9.6623724159       -5.2166763352  W2        3141            0.0000000000
      9423      3141  TIP3      H2            -13.4959605720       -9.7065624159       -5.6358363352  W2        3141            0.0000000000
      9424      3142  TIP3      OH2            -6.1031305720      -17.4324424159       -9.3002263352  W2        3142            0.0000000000
      9425      3142  TIP3      H1             -6.3183305720      -18.1981024159       -8.7676263352  W2        3142            0.0000000000
      9426      3142  TIP3      H2             -5.4473905720      -16.9599824159       -8.7873763352  W2        3142            0.0000000000
      9427      3143  TIP3      OH2           -17.1853205720      -16.0439124159       -7.6553463352  W2        3143            0.0000000000
      9428      3143  TIP3      H1            -16.5716905720      -15.4111524159       -7.2821063352  W2        3143            0.0000000000
      9429      3143  TIP3      H2            -16.6732505720      -16.5164124159       -8.3116563352  W2        3143            0.0000000000
      9430      3144  TIP3      OH2           -15.8024805720       -8.2962224159       -4.5330463352  W2        3144            0.0000000000
      9431      3144  TIP3      H1            -15.8077205720       -7.4168724159       -4.9111163352  W2        3144            0.0000000000
      9432      3144  TIP3      H2            -16.6560705720       -8.3798124159       -4.1080563352  W2        3144            0.0000000000
      9433      3145  TIP3      OH2           -19.6813905720       -8.6254324159      -13.7511163352  W2        3145            0.0000000000
      9434      3145  TIP3      H1            -19.9533005720       -8.3963324159      -14.6398263352  W2        3145            0.0000000000
      9435      3145  TIP3      H2            -19.6358205720       -7.7875524159      -13.2905863352  W2        3145            0.0000000000
      9436      3146  TIP3      OH2            -6.0564205720       -7.0038424159       -7.0382663352  W2        3146            0.0000000000
      9437      3146  TIP3      H1             -6.9980505720       -6.9454524159       -6.8765763352  W2        3146            0.0000000000
      9438      3146  TIP3      H2             -5.7798105720       -6.0977924159       -7.1752963352  W2        3146            0.0000000000
      9439      3147  TIP3      OH2            -5.7557205720      -18.7173124159       -5.6208763352  W2        3147            0.0000000000
      9440      3147  TIP3      H1             -6.4918005720      -18.1066024159       -5.6587463352  W2        3147            0.0000000000
      9441      3147  TIP3      H2             -5.0723205720      -18.3024124159       -6.1472363352  W2        3147            0.0000000000
      9442      3148  TIP3      OH2           -12.7525805720      -20.6305824159       -8.1550763352  W2        3148            0.0000000000
      9443      3148  TIP3      H1            -12.8701605720      -21.5789824159       -8.2092463352  W2        3148            0.0000000000
      9444      3148  TIP3      H2            -13.6075705720      -20.2979724159       -7.8819663352  W2        3148            0.0000000000
      9445      3149  TIP3      OH2            -7.8043005720       -5.2224924159      -10.4131063352  W2        3149            0.0000000000
      9446      3149  TIP3      H1             -7.3790705720       -5.9297024159      -10.8981463352  W2        3149            0.0000000000
      9447      3149  TIP3      H2             -7.4873005720       -4.4212224159      -10.8298863352  W2        3149            0.0000000000
      9448      3150  TIP3      OH2            -6.6446505720       -7.3216424159      -11.9044463352  W2        3150            0.0000000000
      9449      3150  TIP3      H1             -6.9021705720       -8.0116324159      -12.5158563352  W2        3150            0.0000000000
      9450      3150  TIP3      H2             -6.5735705720       -7.7645224159      -11.0588563352  W2        3150            0.0000000000
      9451      3151  TIP3      OH2            -4.9586305720       -8.7549724159       -3.4270963352  W2        3151            0.0000000000
      9452      3151  TIP3      H1             -4.8190005720       -9.3467224159       -4.1663963352  W2        3151            0.0000000000
      9453      3151  TIP3      H2             -4.7913505720       -7.8823824159       -3.7832163352  W2        3151            0.0000000000
      9454      3152  TIP3      OH2           -10.4860905720      -11.7930224159      -13.6544963352  W2        3152            0.0000000000
      9455      3152  TIP3      H1            -11.1975405720      -11.2580524159      -14.0064463352  W2        3152            0.0000000000
      9456      3152  TIP3      H2             -9.7951305720      -11.7378124159      -14.3146063352  W2        3152            0.0000000000
      9457      3153  TIP3      OH2           -10.4321705720      -13.3355924159      -16.6159963352  W2        3153            0.0000000000
      9458      3153  TIP3      H1             -9.7311805720      -13.3129024159      -15.9645963352  W2        3153            0.0000000000
      9459      3153  TIP3      H2            -10.1298805720      -13.9636224159      -17.2720663352  W2        3153            0.0000000000
      9460      3154  TIP3      OH2            -3.1167005720      -12.4151724159       -5.3610563352  W2        3154            0.0000000000
      9461      3154  TIP3      H1             -3.7692905720      -11.7206124159       -5.2719663352  W2        3154            0.0000000000
      9462      3154  TIP3      H2             -2.6516705720      -12.2050824159       -6.1708963352  W2        3154            0.0000000000
      9463      3155  TIP3      OH2            -7.0803205720      -11.5836924159      -12.7029063352  W2        3155            0.0000000000
      9464      3155  TIP3      H1             -7.8122205720      -11.3553224159      -12.1298463352  W2        3155            0.0000000000
      9465      3155  TIP3      H2             -6.6331005720      -12.2974224159      -12.2481563352  W2        3155            0.0000000000
      9466      3156  TIP3      OH2            -7.1829705720      -13.4094324159       -3.6352063352  W2        3156            0.0000000000
      9467      3156  TIP3      H1             -7.1030605720      -12.6459924159       -3.0633563352  W2        3156            0.0000000000
      9468      3156  TIP3      H2             -7.7842005720      -13.1301924159       -4.3256963352  W2        3156            0.0000000000
      9469      3157  TIP3      OH2           -15.4349505720      -10.9530724159      -10.8204063352  W2        3157            0.0000000000
      9470      3157  TIP3      H1            -15.7654305720      -11.3237324159      -11.6387063352  W2        3157            0.0000000000
      9471      3157  TIP3      H2            -14.8465405720      -11.6236724159      -10.4735763352  W2        3157            0.0000000000
      9472      3158  TIP3      OH2           -14.0682005720       -7.5250124159       -8.1391863352  W2        3158            0.0000000000
      9473      3158  TIP3      H1            -14.1630705720       -8.1037024159       -8.8957263352  W2        3158            0.0000000000
      9474      3158  TIP3      H2            -13.3388405720       -7.8964424159       -7.6429063352  W2        3158            0.0000000000
      9475      3159  TIP3      OH2           -15.0684005720      -12.1845124159       -7.1869063352  W2        3159            0.0000000000
      9476      3159  TIP3      H1            -14.5031505720      -12.0630924159       -7.9497863352  W2        3159            0.0000000000
      9477      3159  TIP3      H2            -14.7495105720      -11.5470124159       -6.5480563352  W2        3159            0.0000000000
      9478      3160  TIP3      OH2            -8.7591805720       -6.6813224159       -6.4528563352  W2        3160            0.0000000000
      9479      3160  TIP3      H1             -8.9995205720       -6.0190124159       -5.8049363352  W2        3160            0.0000000000
      9480      3160  TIP3      H2             -8.9573605720       -7.5158024159       -6.0278963352  W2        3160            0.0000000000
      9481      3161  TIP3      OH2           -14.1883305720       -7.7852424159       -2.4697163352  W2        3161            0.0000000000
      9482      3161  TIP3      H1            -14.4995805720       -7.0029224159       -2.0143963352  W2        3161            0.0000000000
      9483      3161  TIP3      H2            -14.8383105720       -7.9383324159       -3.1555163352  W2        3161            0.0000000000
      9484      3162  TIP3      OH2            -8.2093705720      -12.4214024159      -15.0177863352  W2        3162            0.0000000000
      9485      3162  TIP3      H1             -7.6298205720      -12.2713724159      -14.2708963352  W2        3162            0.0000000000
      9486      3162  TIP3      H2             -7.7953705720      -11.9506624159      -15.7411463352  W2        3162            0.0000000000
      9487      3163  TIP3      OH2           -17.2683405720      -11.5871324159       -3.2411463352  W2        3163            0.0000000000
      9488      3163  TIP3      H1            -17.1980205720      -10.9364524159       -2.5426463352  W2        3163            0.0000000000
      9489      3163  TIP3      H2            -18.1591205720      -11.4843824159       -3.5760563352  W2        3163            0.0000000000
      9490      3164  TIP3      OH2           -10.4828805720       -5.6845524159      -11.5824763352  W2        3164            0.0000000000
      9491      3164  TIP3      H1            -10.0091205720       -5.3889224159      -10.8050563352  W2        3164            0.0000000000
      9492      3164  TIP3      H2            -11.0459505720       -4.9463924159      -11.8155163352  W2        3164            0.0000000000
      9493      3165  TIP3      OH2           -15.9487405720       -5.7137424159       -1.7063363352  W2        3165            0.0000000000
      9494      3165  TIP3      H1            -15.9412105720       -5.8497724159       -2.6537863352  W2        3165            0.0000000000
      9495      3165  TIP3      H2            -16.8647005720       -5.8309324159       -1.4543363352  W2        3165            0.0000000000
      9496      3166  TIP3      OH2            -4.5105305720      -20.6713624159      -15.2048163352  W2        3166            0.0000000000
      9497      3166  TIP3      H1             -5.4104605720      -20.5324624159      -14.9097563352  W2        3166            0.0000000000
      9498      3166  TIP3      H2             -4.2586905720      -19.8399024159      -15.6066463352  W2        3166            0.0000000000
      9499      3167  TIP3      OH2           -16.4446805720      -11.8836424159      -13.2311263352  W2        3167            0.0000000000
      9500      3167  TIP3      H1            -16.7365505720      -11.1154724159      -13.7219963352  W2        3167            0.0000000000
      9501      3167  TIP3      H2            -17.1191605720      -12.5430224159      -13.3939863352  W2        3167            0.0000000000
      9502      3168  TIP3      OH2            -3.3213905720       -6.3051224159      -16.8284263352  W2        3168            0.0000000000
      9503      3168  TIP3      H1             -3.2480405720       -5.3661024159      -16.6578963352  W2        3168            0.0000000000
      9504      3168  TIP3      H2             -2.4158805720       -6.6102624159      -16.8846963352  W2        3168            0.0000000000
      9505      3169  TIP3      OH2           -20.3516705720       -9.5207224159       -4.4161463352  W2        3169            0.0000000000
      9506      3169  TIP3      H1            -20.8528305720       -9.5487824159       -5.2311763352  W2        3169            0.0000000000
      9507      3169  TIP3      H2            -20.3463005720      -10.4264024159       -4.1064163352  W2        3169            0.0000000000
      9508      3170  TIP3      OH2           -20.6014005720       -6.7403424159       -7.5321263352  W2        3170            0.0000000000
      9509      3170  TIP3      H1            -19.6553405720       -6.8846424159       -7.5511763352  W2        3170            0.0000000000
      9510      3170  TIP3      H2            -20.7137705720       -5.9560624159       -6.9950063352  W2        3170            0.0000000000
      9511      3171  TIP3      OH2            -2.4035505720       -6.0743724159       -1.8497563352  W2        3171            0.0000000000
      9512      3171  TIP3      H1             -2.4528705720       -7.0295624159       -1.8869963352  W2        3171            0.0000000000
      9513      3171  TIP3      H2             -3.2303205720       -5.8068424159       -1.4483763352  W2        3171            0.0000000000
      9514      3172  TIP3      OH2           -11.4251505720       -6.5004524159       -2.9736163352  W2        3172            0.0000000000
      9515      3172  TIP3      H1            -11.3376905720       -5.6739924159       -2.4987063352  W2        3172            0.0000000000
      9516      3172  TIP3      H2            -12.2886405720       -6.8300724159       -2.7246863352  W2        3172            0.0000000000
      9517      3173  TIP3      OH2           -11.0105705720       -2.7280824159      -13.1675563352  W2        3173            0.0000000000
      9518      3173  TIP3      H1            -11.0859705720       -2.8493624159      -14.1140363352  W2        3173            0.0000000000
      9519      3173  TIP3      H2            -10.9777005720       -1.7788124159      -13.0490963352  W2        3173            0.0000000000
      9520      3174  TIP3      OH2           -17.3571905720       -3.9393824159      -11.3866563352  W2        3174            0.0000000000
      9521      3174  TIP3      H1            -17.2051505720       -4.2873424159      -10.5080063352  W2        3174            0.0000000000
      9522      3174  TIP3      H2            -18.2081505720       -4.2956524159      -11.6419363352  W2        3174            0.0000000000
      9523      3175  TIP3      OH2            -7.9089705720       -3.5740624159      -16.1653163352  W2        3175            0.0000000000
      9524      3175  TIP3      H1             -7.5341305720       -4.3184524159      -16.6360563352  W2        3175            0.0000000000
      9525      3175  TIP3      H2             -7.9046005720       -3.8440024159      -15.2469863352  W2        3175            0.0000000000
      9526      3176  TIP3      OH2            -8.2401605720       -3.6483524159      -13.4160963352  W2        3176            0.0000000000
      9527      3176  TIP3      H1             -9.1751805720       -3.5481624159      -13.2373963352  W2        3176            0.0000000000
      9528      3176  TIP3      H2             -7.9599705720       -4.3577524159      -12.8377763352  W2        3176            0.0000000000
      9529      3177  TIP3      OH2            -5.2515705720      -14.5811224159       -1.3695363352  W2        3177            0.0000000000
      9530      3177  TIP3      H1             -5.6588905720      -14.1005624159       -2.0902063352  W2        3177            0.0000000000
      9531      3177  TIP3      H2             -5.2110005720      -15.4865224159       -1.6774563352  W2        3177            0.0000000000
      9532      3178  TIP3      OH2           -18.1026205720       -8.1971824159       -3.3728663352  W2        3178            0.0000000000
      9533      3178  TIP3      H1            -17.8864905720       -8.5586224159       -2.5132863352  W2        3178            0.0000000000
      9534      3178  TIP3      H2            -18.9581505720       -8.5718024159       -3.5825163352  W2        3178            0.0000000000
      9535      3179  TIP3      OH2           -15.4838205720      -19.7271324159       -7.3774463352  W2        3179            0.0000000000
      9536      3179  TIP3      H1            -16.3454505720      -19.8143124159       -7.7851563352  W2        3179            0.0000000000
      9537      3179  TIP3      H2            -15.5062505720      -18.8711224159       -6.9496863352  W2        3179            0.0000000000
      9538      3180  TIP3      OH2           -10.8210405720      -20.0050924159       -4.0027463352  W2        3180            0.0000000000
      9539      3180  TIP3      H1            -10.4007305720      -20.4203824159       -3.2496863352  W2        3180            0.0000000000
      9540      3180  TIP3      H2            -11.7540805720      -20.1837624159       -3.8855463352  W2        3180            0.0000000000
      9541      3181  TIP3      OH2            -7.4945505720      -16.2495724159       -3.1492963352  W2        3181            0.0000000000
      9542      3181  TIP3      H1             -8.0086005720      -16.3753524159       -2.3516963352  W2        3181            0.0000000000
      9543      3181  TIP3      H2             -7.6500805720      -15.3372624159       -3.3936763352  W2        3181            0.0000000000
      9544      3182  TIP3      OH2            -6.7320605720      -11.3885724159      -17.3879963352  W2        3182            0.0000000000
      9545      3182  TIP3      H1             -6.6899805720      -11.6111824159      -18.3179963352  W2        3182            0.0000000000
      9546      3182  TIP3      H2             -5.8828505720      -10.9898624159      -17.1980063352  W2        3182            0.0000000000
      9547      3183  TIP3      OH2           -11.1593105720      -17.5127524159      -16.7176663352  W2        3183            0.0000000000
      9548      3183  TIP3      H1            -11.4128305720      -17.4935924159      -15.7948563352  W2        3183            0.0000000000
      9549      3183  TIP3      H2            -11.4161005720      -18.3842124159      -17.0190463352  W2        3183            0.0000000000
      9550      3184  TIP3      OH2           -15.3928105720      -14.7616824159       -6.2824263352  W2        3184            0.0000000000
      9551      3184  TIP3      H1            -16.0346005720      -14.8019524159       -5.5734163352  W2        3184            0.0000000000
      9552      3184  TIP3      H2            -15.3556105720      -13.8352124159       -6.5201263352  W2        3184            0.0000000000
      9553      3185  TIP3      OH2           -15.3959005720      -14.5406724159      -11.3704263352  W2        3185            0.0000000000
      9554      3185  TIP3      H1            -16.2886105720      -14.8810624159      -11.4290463352  W2        3185            0.0000000000
      9555      3185  TIP3      H2            -14.9452405720      -14.9175824159      -12.1261063352  W2        3185            0.0000000000
      9556      3186  TIP3      OH2            -9.8603505720      -14.1246424159      -12.5533463352  W2        3186            0.0000000000
      9557      3186  TIP3      H1            -10.2693205720      -13.3097824159      -12.8448663352  W2        3186            0.0000000000
      9558      3186  TIP3      H2             -9.1397305720      -14.2646324159      -13.1676363352  W2        3186            0.0000000000
      9559      3187  TIP3      OH2           -10.7581905720      -13.9490024159       -1.0652763352  W2        3187            0.0000000000
      9560      3187  TIP3      H1            -11.3208105720      -14.6538424159       -0.7444963352  W2        3187            0.0000000000
      9561      3187  TIP3      H2             -9.9318505720      -14.0698124159       -0.5975163352  W2        3187            0.0000000000
      9562      3188  TIP3      OH2            -8.8555805720      -14.6786024159       -9.7393763352  W2        3188            0.0000000000
      9563      3188  TIP3      H1             -9.0511305720      -14.0729224159      -10.4543163352  W2        3188            0.0000000000
      9564      3188  TIP3      H2             -8.6743205720      -15.5120824159      -10.1737463352  W2        3188            0.0000000000
      9565      3189  TIP3      OH2           -17.6427605720      -14.4413324159       -4.4152263352  W2        3189            0.0000000000
      9566      3189  TIP3      H1            -17.6808205720      -14.0411724159       -3.5465163352  W2        3189            0.0000000000
      9567      3189  TIP3      H2            -18.1336505720      -15.2580924159       -4.3249363352  W2        3189            0.0000000000
      9568      3190  TIP3      OH2           -14.2770205720      -17.0671024159      -17.6166263352  W2        3190            0.0000000000
      9569      3190  TIP3      H1            -14.7079505720      -17.5120924159      -16.8868863352  W2        3190            0.0000000000
      9570      3190  TIP3      H2            -14.9951505720      -16.6954724159      -18.1288763352  W2        3190            0.0000000000
      9571      3191  TIP3      OH2           -21.0346805720      -17.3251524159      -10.5647563352  W2        3191            0.0000000000
      9572      3191  TIP3      H1            -20.4039105720      -17.3539424159       -9.8453663352  W2        3191            0.0000000000
      9573      3191  TIP3      H2            -20.5852505720      -17.7502824159      -11.2951663352  W2        3191            0.0000000000
      9574      3192  TIP3      OH2           -19.7604705720      -16.5789524159      -15.1407163352  W2        3192            0.0000000000
      9575      3192  TIP3      H1            -19.2863005720      -15.9879624159      -15.7256263352  W2        3192            0.0000000000
      9576      3192  TIP3      H2            -20.4778305720      -16.0486624159      -14.7937063352  W2        3192            0.0000000000
      9577      3193  TIP3      OH2            -9.5916605720      -13.0404724159       -5.0681363352  W2        3193            0.0000000000
      9578      3193  TIP3      H1             -9.2681805720      -13.6715024159       -5.7110863352  W2        3193            0.0000000000
      9579      3193  TIP3      H2            -10.0317305720      -13.5752524159       -4.4073963352  W2        3193            0.0000000000
      9580      3194  TIP3      OH2           -12.8143705720      -17.1129224159      -10.2840163352  W2        3194            0.0000000000
      9581      3194  TIP3      H1            -13.7252605720      -17.0562424159       -9.9954163352  W2        3194            0.0000000000
      9582      3194  TIP3      H2            -12.3090805720      -17.1733724159       -9.4732963352  W2        3194            0.0000000000
      9583      3195  TIP3      OH2           -17.9860305720      -15.4842924159      -11.4572563352  W2        3195            0.0000000000
      9584      3195  TIP3      H1            -18.8752305720      -15.3847424159      -11.7972963352  W2        3195            0.0000000000
      9585      3195  TIP3      H2            -17.6895405720      -16.3259924159      -11.8034663352  W2        3195            0.0000000000
      9586      3196  TIP3      OH2           -14.3328505720      -15.4840324159      -13.8007963352  W2        3196            0.0000000000
      9587      3196  TIP3      H1            -13.4013005720      -15.3550324159      -13.6224863352  W2        3196            0.0000000000
      9588      3196  TIP3      H2            -14.5478205720      -14.8146024159      -14.4503263352  W2        3196            0.0000000000
      9589      3197  TIP3      OH2            -8.4091805720      -17.8782924159       -7.0198363352  W2        3197            0.0000000000
      9590      3197  TIP3      H1             -9.0860205720      -17.7469824159       -6.3558663352  W2        3197            0.0000000000
      9591      3197  TIP3      H2             -8.8946905720      -18.0333424159       -7.8300663352  W2        3197            0.0000000000
      9592      3198  TIP3      OH2           -15.6588305720      -14.2898124159      -16.2341863352  W2        3198            0.0000000000
      9593      3198  TIP3      H1            -16.2013205720      -14.6694324159      -16.9254263352  W2        3198            0.0000000000
      9594      3198  TIP3      H2            -14.8253405720      -14.0953424159      -16.6627763352  W2        3198            0.0000000000
      9595      3199  TIP3      OH2            -5.1216705720       -2.2067524159       -0.7430763352  W2        3199            0.0000000000
      9596      3199  TIP3      H1             -4.9218005720       -1.7825624159       -1.5775463352  W2        3199            0.0000000000
      9597      3199  TIP3      H2             -4.4663005720       -1.8629324159       -0.1360363352  W2        3199            0.0000000000
      9598      3200  TIP3      OH2           -17.5236905720       -9.7326224159       -1.1350263352  W2        3200            0.0000000000
      9599      3200  TIP3      H1            -16.7914505720       -9.4780324159       -0.5735763352  W2        3200            0.0000000000
      9600      3200  TIP3      H2            -18.3038205720       -9.5280824159       -0.6194863352  W2        3200            0.0000000000
      9601      3201  TIP3      OH2           -11.4944005720      -14.3256224159       -8.3970563352  W2        3201            0.0000000000
      9602      3201  TIP3      H1            -10.9300605720      -14.8719624159       -8.9440963352  W2        3201            0.0000000000
      9603      3201  TIP3      H2            -11.6420605720      -14.8474324159       -7.6082963352  W2        3201            0.0000000000
      9604      3202  TIP3      OH2           -16.4924305720      -18.1890124159      -11.9785763352  W2        3202            0.0000000000
      9605      3202  TIP3      H1            -16.8094805720      -19.0914824159      -12.0140363352  W2        3202            0.0000000000
      9606      3202  TIP3      H2            -15.7110205720      -18.1872724159      -12.5314163352  W2        3202            0.0000000000
      9607      3203  TIP3      OH2           -12.8678105720      -15.9370124159       -5.9830163352  W2        3203            0.0000000000
      9608      3203  TIP3      H1            -13.7032805720      -15.4830624159       -5.8727763352  W2        3203            0.0000000000
      9609      3203  TIP3      H2            -12.3437505720      -15.6611624159       -5.2310263352  W2        3203            0.0000000000
      9610      3204  TIP3      OH2           -12.3235505720       -9.7242424159      -14.2983763352  W2        3204            0.0000000000
      9611      3204  TIP3      H1            -13.0684505720      -10.2317124159      -14.6205863352  W2        3204            0.0000000000
      9612      3204  TIP3      H2            -12.4578305720       -9.6754424159      -13.3518963352  W2        3204            0.0000000000
      9613      3205  TIP3      OH2            -5.1736605720      -10.5914224159       -5.5116163352  W2        3205            0.0000000000
      9614      3205  TIP3      H1             -4.5317805720      -10.1347924159       -6.0553963352  W2        3205            0.0000000000
      9615      3205  TIP3      H2             -6.0039705720      -10.4781824159       -5.9742063352  W2        3205            0.0000000000
      9616      3206  TIP3      OH2            -8.4258705720      -16.9102524159      -16.0991163352  W2        3206            0.0000000000
      9617      3206  TIP3      H1             -9.3644505720      -16.7986924159      -16.2502363352  W2        3206            0.0000000000
      9618      3206  TIP3      H2             -8.1286605720      -16.0535624159      -15.7925463352  W2        3206            0.0000000000
      9619      3207  TIP3      OH2           -10.8043405720       -9.5399124159       -3.0614663352  W2        3207            0.0000000000
      9620      3207  TIP3      H1            -11.1497305720       -9.9216724159       -2.2545063352  W2        3207            0.0000000000
      9621      3207  TIP3      H2            -11.0043305720       -8.6065524159       -2.9901763352  W2        3207            0.0000000000
      9622      3208  TIP3      OH2            -7.7075205720      -15.0429824159      -14.4383763352  W2        3208            0.0000000000
      9623      3208  TIP3      H1             -6.8156205720      -15.1804824159      -14.1192563352  W2        3208            0.0000000000
      9624      3208  TIP3      H2             -7.6511605720      -14.2523724159      -14.9750263352  W2        3208            0.0000000000
      9625      3209  TIP3      OH2           -17.1987205720      -10.4292424159       -8.5285863352  W2        3209            0.0000000000
      9626      3209  TIP3      H1            -16.4540005720      -10.4316724159       -9.1299363352  W2        3209            0.0000000000
      9627      3209  TIP3      H2            -17.1210605720      -11.2528624159       -8.0470763352  W2        3209            0.0000000000
      9628      3210  TIP3      OH2           -10.1981405720       -8.2658124159      -15.2729163352  W2        3210            0.0000000000
      9629      3210  TIP3      H1            -10.4933005720       -7.4390224159      -14.8914363352  W2        3210            0.0000000000
      9630      3210  TIP3      H2            -10.9011405720       -8.8851224159      -15.0767763352  W2        3210            0.0000000000
      9631      3211  TIP3      OH2           -20.1907505720      -11.9685524159       -3.2137363352  W2        3211            0.0000000000
      9632      3211  TIP3      H1            -19.9678905720      -12.3865924159       -2.3819863352  W2        3211            0.0000000000
      9633      3211  TIP3      H2            -20.7927405720      -12.5810524159       -3.6364563352  W2        3211            0.0000000000
      9634      3212  TIP3      OH2           -13.1742605720      -12.4515624159       -1.0007663352  W2        3212            0.0000000000
      9635      3212  TIP3      H1            -13.4701805720      -12.6172624159       -1.8958563352  W2        3212            0.0000000000
      9636      3212  TIP3      H2            -12.2427405720      -12.6715324159       -1.0113763352  W2        3212            0.0000000000
      9637      3213  TIP3      OH2            -8.5539805720       -7.0783624159       -3.1109663352  W2        3213            0.0000000000
      9638      3213  TIP3      H1             -9.4545505720       -6.8951024159       -3.3785763352  W2        3213            0.0000000000
      9639      3213  TIP3      H2             -8.5198705720       -6.8194324159       -2.1900863352  W2        3213            0.0000000000
      9640      3214  TIP3      OH2            -2.8226505720      -14.8335724159      -14.7437063352  W2        3214            0.0000000000
      9641      3214  TIP3      H1             -3.3770205720      -15.2297724159      -15.4159563352  W2        3214            0.0000000000
      9642      3214  TIP3      H2             -2.7222905720      -13.9230524159      -15.0213763352  W2        3214            0.0000000000
      9643      3215  TIP3      OH2            -2.8594505720       -9.0334024159       -1.9065563352  W2        3215            0.0000000000
      9644      3215  TIP3      H1             -3.7106005720       -8.7950224159       -2.2739163352  W2        3215            0.0000000000
      9645      3215  TIP3      H2             -2.2691105720       -9.0500824159       -2.6598463352  W2        3215            0.0000000000
      9646      3216  TIP3      OH2            -4.5274805720       -6.0475324159      -14.2784963352  W2        3216            0.0000000000
      9647      3216  TIP3      H1             -4.9003705720       -6.8731524159      -13.9694363352  W2        3216            0.0000000000
      9648      3216  TIP3      H2             -4.2501305720       -6.2305924159      -15.1761563352  W2        3216            0.0000000000
      9649      3217  TIP3      OH2            -7.3670905720      -11.2395824159       -7.2573063352  W2        3217            0.0000000000
      9650      3217  TIP3      H1             -8.2954005720      -11.4713924159       -7.2843763352  W2        3217            0.0000000000
      9651      3217  TIP3      H2             -6.9159805720      -12.0166024159       -7.5874263352  W2        3217            0.0000000000
      9652      3218  TIP3      OH2           -14.8237805720       -6.9114224159      -11.1244363352  W2        3218            0.0000000000
      9653      3218  TIP3      H1            -14.2965605720       -6.1379824159      -11.3245563352  W2        3218            0.0000000000
      9654      3218  TIP3      H2            -15.7039305720       -6.6865024159      -11.4260363352  W2        3218            0.0000000000
      9655      3219  TIP3      OH2           -19.0690105720      -12.0490124159      -16.5371963352  W2        3219            0.0000000000
      9656      3219  TIP3      H1            -18.4530205720      -11.4222924159      -16.1577163352  W2        3219            0.0000000000
      9657      3219  TIP3      H2            -19.9307505720      -11.7330324159      -16.2655463352  W2        3219            0.0000000000
      9658      3220  TIP3      OH2           -13.3965505720       -9.2484324159      -11.5480063352  W2        3220            0.0000000000
      9659      3220  TIP3      H1            -13.6375505720       -8.3229924159      -11.5064763352  W2        3220            0.0000000000
      9660      3220  TIP3      H2            -14.1371905720       -9.7073024159      -11.1516163352  W2        3220            0.0000000000
      9661      3221  TIP3      OH2           -12.8818905720       -5.0990724159       -5.2328963352  W2        3221            0.0000000000
      9662      3221  TIP3      H1            -12.5194205720       -4.2445124159       -5.4664563352  W2        3221            0.0000000000
      9663      3221  TIP3      H2            -12.3503705720       -5.3909124159       -4.4922663352  W2        3221            0.0000000000
      9664      3222  TIP3      OH2           -14.7134705720       -4.2266724159      -12.0027863352  W2        3222            0.0000000000
      9665      3222  TIP3      H1            -15.6634205720       -4.1209324159      -11.9514563352  W2        3222            0.0000000000
      9666      3222  TIP3      H2            -14.3616605720       -3.4059324159      -11.6580363352  W2        3222            0.0000000000
      9667      3223  TIP3      OH2            -9.3378105720       -9.0000024159       -5.5323363352  W2        3223            0.0000000000
      9668      3223  TIP3      H1             -9.7636805720       -9.2278324159       -4.7059363352  W2        3223            0.0000000000
      9669      3223  TIP3      H2             -8.7572305720       -9.7388224159       -5.7148063352  W2        3223            0.0000000000
      9670      3224  TIP3      OH2            -7.1349205720       -8.0709524159      -16.4584363352  W2        3224            0.0000000000
      9671      3224  TIP3      H1             -6.7816105720       -8.4509724159      -15.6540863352  W2        3224            0.0000000000
      9672      3224  TIP3      H2             -8.0835705720       -8.1644724159      -16.3715063352  W2        3224            0.0000000000
      9673      3225  TIP3      OH2            -6.6793905720       -4.4480524159       -3.0628563352  W2        3225            0.0000000000
      9674      3225  TIP3      H1             -7.2810705720       -5.0037624159       -3.5582263352  W2        3225            0.0000000000
      9675      3225  TIP3      H2             -6.3980205720       -3.7810724159       -3.6891163352  W2        3225            0.0000000000
      9676      3226  TIP3      OH2            -2.6314805720       -3.5917024159      -16.2574163352  W2        3226            0.0000000000
      9677      3226  TIP3      H1             -1.8876905720       -3.0056524159      -16.3972563352  W2        3226            0.0000000000
      9678      3226  TIP3      H2             -3.3256705720       -3.0231224159      -15.9241763352  W2        3226            0.0000000000
      9679      3227  TIP3      OH2           -18.5568005720      -17.2152824159       -3.6555963352  W2        3227            0.0000000000
      9680      3227  TIP3      H1            -19.4495705720      -16.8767424159       -3.7231963352  W2        3227            0.0000000000
      9681      3227  TIP3      H2            -18.6555205720      -18.0706724159       -3.2375163352  W2        3227            0.0000000000
      9682      3228  TIP3      OH2            -6.2689905720       -9.3987524159      -14.2316463352  W2        3228            0.0000000000
      9683      3228  TIP3      H1             -6.5462305720      -10.1268224159      -13.6755363352  W2        3228            0.0000000000
      9684      3228  TIP3      H2             -5.3416905720       -9.2795524159      -14.0263863352  W2        3228            0.0000000000
      9685      3229  TIP3      OH2           -18.9056005720       -5.4108424159       -5.2206563352  W2        3229            0.0000000000
      9686      3229  TIP3      H1            -18.6885705720       -6.3426024159       -5.2516863352  W2        3229            0.0000000000
      9687      3229  TIP3      H2            -18.6592505720       -5.1363424159       -4.3373763352  W2        3229            0.0000000000
      9688      3230  TIP3      OH2           -13.0441405720       -6.9593424159      -18.0114363352  W2        3230            0.0000000000
      9689      3230  TIP3      H1            -12.8051605720       -7.7075324159      -18.5585463352  W2        3230            0.0000000000
      9690      3230  TIP3      H2            -13.3130105720       -7.3471724159      -17.1786563352  W2        3230            0.0000000000
      9691      3231  TIP3      OH2           -14.1070805720       -7.3889624159      -15.5551763352  W2        3231            0.0000000000
      9692      3231  TIP3      H1            -13.9602805720       -7.9089824159      -14.7650863352  W2        3231            0.0000000000
      9693      3231  TIP3      H2            -14.1099105720       -6.4822024159      -15.2485863352  W2        3231            0.0000000000
      9694      3232  TIP3      OH2           -17.6539705720      -10.1366324159      -15.0446363352  W2        3232            0.0000000000
      9695      3232  TIP3      H1            -18.3400405720       -9.7843824159      -14.4776663352  W2        3232            0.0000000000
      9696      3232  TIP3      H2            -17.1311805720       -9.3736724159      -15.2912063352  W2        3232            0.0000000000
      9697      3233  TIP3      OH2            -9.8224605720      -17.4742524159       -4.7657363352  W2        3233            0.0000000000
      9698      3233  TIP3      H1             -9.1236705720      -17.4003824159       -4.1157663352  W2        3233            0.0000000000
      9699      3233  TIP3      H2            -10.2033205720      -18.3387524159       -4.6114463352  W2        3233            0.0000000000
      9700      3234  TIP3      OH2            -9.0379705720      -17.8220824159      -13.6685063352  W2        3234            0.0000000000
      9701      3234  TIP3      H1             -8.8181405720      -17.3505424159      -14.4719663352  W2        3234            0.0000000000
      9702      3234  TIP3      H2             -8.4795705720      -17.4278224159      -12.9984463352  W2        3234            0.0000000000
      9703      3235  TIP3      OH2           -11.3693605720       -5.6916024159      -14.8057563352  W2        3235            0.0000000000
      9704      3235  TIP3      H1            -12.1857505720       -5.1946324159      -14.7533263352  W2        3235            0.0000000000
      9705      3235  TIP3      H2            -10.8397305720       -5.2162524159      -15.4458763352  W2        3235            0.0000000000
      9706      3236  TIP3      OH2           -11.8379805720      -16.0942024159      -12.8336663352  W2        3236            0.0000000000
      9707      3236  TIP3      H1            -11.0257205720      -15.5898824159      -12.7874963352  W2        3236            0.0000000000
      9708      3236  TIP3      H2            -12.0826805720      -16.2392324159      -11.9197063352  W2        3236            0.0000000000
      9709      3237  TIP3      OH2           -11.3023405720      -15.1079324159       -3.6490063352  W2        3237            0.0000000000
      9710      3237  TIP3      H1            -11.1833105720      -14.5343924159       -2.8919663352  W2        3237            0.0000000000
      9711      3237  TIP3      H2            -10.6468805720      -15.7959924159       -3.5342263352  W2        3237            0.0000000000
      9712      3238  TIP3      OH2           -10.9543105720      -19.0129024159      -11.8955563352  W2        3238            0.0000000000
      9713      3238  TIP3      H1            -11.3009605720      -18.3958424159      -11.2511263352  W2        3238            0.0000000000
      9714      3238  TIP3      H2            -10.2956205720      -18.5123324159      -12.3770063352  W2        3238            0.0000000000
      9715      3239  TIP3      OH2           -14.0310505720       -4.6478824159      -14.8240663352  W2        3239            0.0000000000
      9716      3239  TIP3      H1            -13.8701805720       -3.8481324159      -15.3248063352  W2        3239            0.0000000000
      9717      3239  TIP3      H2            -14.2282705720       -4.3412824159      -13.9390063352  W2        3239            0.0000000000
      9718      3240  TIP3      OH2           -15.2966105720      -17.9499624159      -15.2083063352  W2        3240            0.0000000000
      9719      3240  TIP3      H1            -15.3801305720      -17.0616524159      -14.8616663352  W2        3240            0.0000000000
      9720      3240  TIP3      H2            -14.4065805720      -18.2152924159      -14.9766263352  W2        3240            0.0000000000
      9721      3241  TIP3      OH2            -5.0977605720      -17.2009024159       -2.8140363352  W2        3241            0.0000000000
      9722      3241  TIP3      H1             -6.0141805720      -16.9387324159       -2.9016663352  W2        3241            0.0000000000
      9723      3241  TIP3      H2             -4.7622605720      -17.2040024159       -3.7105063352  W2        3241            0.0000000000
      9724      3242  TIP3      OH2            -6.4956605720      -13.4508024159       -8.7183063352  W2        3242            0.0000000000
      9725      3242  TIP3      H1             -7.2932205720      -13.8657824159       -9.0468063352  W2        3242            0.0000000000
      9726      3242  TIP3      H2             -6.0505505720      -14.1414324159       -8.2272563352  W2        3242            0.0000000000
      9727      3243  TIP3      OH2           -17.0380805720       -7.5227424159      -16.1478563352  W2        3243            0.0000000000
      9728      3243  TIP3      H1            -16.4459305720       -6.8232624159      -15.8716163352  W2        3243            0.0000000000
      9729      3243  TIP3      H2            -16.5787805720       -7.9557924159      -16.8673963352  W2        3243            0.0000000000
      9730      3244  TIP3      OH2           -18.7221605720      -14.8584424159      -17.0319163352  W2        3244            0.0000000000
      9731      3244  TIP3      H1            -18.7669005720      -13.9191324159      -16.8532163352  W2        3244            0.0000000000
      9732      3244  TIP3      H2            -19.6098405720      -15.0939524159      -17.3017063352  W2        3244            0.0000000000
      9733      3245  TIP3      OH2            -5.4092005720       -4.1945524159       -7.0959563352  W2        3245            0.0000000000
      9734      3245  TIP3      H1             -5.5647705720       -3.5161124159       -7.7530263352  W2        3245            0.0000000000
      9735      3245  TIP3      H2             -4.4765605720       -4.1226224159       -6.8928963352  W2        3245            0.0000000000
      9736      3246  TIP3      OH2           -17.9139605720      -20.0767824159       -8.3588163352  W2        3246            0.0000000000
      9737      3246  TIP3      H1            -18.1429805720      -20.0175324159       -9.2863163352  W2        3246            0.0000000000
      9738      3246  TIP3      H2            -18.3566205720      -20.8682324159       -8.0524063352  W2        3246            0.0000000000
      9739      3247  TIP3      OH2           -18.9836305720       -6.1360724159      -12.1982363352  W2        3247            0.0000000000
      9740      3247  TIP3      H1            -19.8157705720       -5.6638024159      -12.1710963352  W2        3247            0.0000000000
      9741      3247  TIP3      H2            -18.4378005720       -5.6263124159      -12.7969263352  W2        3247            0.0000000000
      9742      3248  TIP3      OH2           -19.6952605720       -3.5237024159       -0.8684363352  W2        3248            0.0000000000
      9743      3248  TIP3      H1            -19.1550405720       -3.7403024159       -0.1085163352  W2        3248            0.0000000000
      9744      3248  TIP3      H2            -20.1764605720       -4.3291024159       -1.0581863352  W2        3248            0.0000000000
      9745      3249  TIP3      OH2           -15.0979205720       -4.6042624159        0.7519836648  W2        3249            0.0000000000
      9746      3249  TIP3      H1            -14.3302005720       -5.0631824159        1.0929036648  W2        3249            0.0000000000
      9747      3249  TIP3      H2            -15.1193005720       -4.8302824159       -0.1778963352  W2        3249            0.0000000000
      9748      3250  TIP3      OH2           -11.0059605720       -5.0962024159      -17.8728363352  W2        3250            0.0000000000
      9749      3250  TIP3      H1            -11.6498605720       -5.7273424159      -17.5514663352  W2        3250            0.0000000000
      9750      3250  TIP3      H2            -10.2441305720       -5.6274024159      -18.1044863352  W2        3250            0.0000000000
      9751      3251  TIP3      OH2            -8.5210505720       -6.2241524159       -0.5188663352  W2        3251            0.0000000000
      9752      3251  TIP3      H1             -8.8721005720       -7.0808524159       -0.2758263352  W2        3251            0.0000000000
      9753      3251  TIP3      H2             -7.7947305720       -6.0814824159        0.0880336648  W2        3251            0.0000000000
      9754      3252  TIP3      OH2            -6.4016705720       -5.2792124159      -17.6390363352  W2        3252            0.0000000000
      9755      3252  TIP3      H1             -6.1186305720       -6.0736924159      -17.1863463352  W2        3252            0.0000000000
      9756      3252  TIP3      H2             -5.6618805720       -5.0461124159      -18.1999263352  W2        3252            0.0000000000
      9757      3253  TIP3      OH2           -19.7883105720       -9.7132924159        0.0859936648  W2        3253            0.0000000000
      9758      3253  TIP3      H1            -19.6442605720      -10.6152224159       -0.2003363352  W2        3253            0.0000000000
      9759      3253  TIP3      H2            -20.5605705720       -9.4270824159       -0.4017763352  W2        3253            0.0000000000
      9760      3254  TIP3      OH2           -15.4469405720       -9.3697224159      -17.7815463352  W2        3254            0.0000000000
      9761      3254  TIP3      H1            -15.3825305720      -10.1637624159      -17.2509063352  W2        3254            0.0000000000
      9762      3254  TIP3      H2            -14.7940205720       -9.4884424159      -18.4713463352  W2        3254            0.0000000000
      9763      3255  TIP3      OH2           -13.1327005720       -9.7434824159       -0.4813663352  W2        3255            0.0000000000
      9764      3255  TIP3      H1            -13.4613205720       -9.4726724159       -1.3386263352  W2        3255            0.0000000000
      9765      3255  TIP3      H2            -12.9808805720      -10.6845024159       -0.5688663352  W2        3255            0.0000000000
      9766      3256  TIP3      OH2           -10.0946005720       -8.3225524159      -18.0457463352  W2        3256            0.0000000000
      9767      3256  TIP3      H1            -10.3631905720       -8.1423424159      -17.1448563352  W2        3256            0.0000000000
      9768      3256  TIP3      H2            -10.3010405720       -9.2479324159      -18.1771663352  W2        3256            0.0000000000
      9769      3257  TIP3      OH2            -7.3981805720       -9.8277524159       -3.0981363352  W2        3257            0.0000000000
      9770      3257  TIP3      H1             -6.6527005720       -9.2393824159       -3.2177363352  W2        3257            0.0000000000
      9771      3257  TIP3      H2             -8.1555005720       -9.2457824159       -3.0348263352  W2        3257            0.0000000000
      9772      3258  TIP3      OH2           -18.9556605720      -12.5129624159       -0.4940763352  W2        3258            0.0000000000
      9773      3258  TIP3      H1            -18.5475405720      -13.3703024159       -0.6150163352  W2        3258            0.0000000000
      9774      3258  TIP3      H2            -19.2159005720      -12.4988324159        0.4269536648  W2        3258            0.0000000000
      9775      3259  TIP3      OH2           -14.2975605720      -11.3971024159      -15.4757463352  W2        3259            0.0000000000
      9776      3259  TIP3      H1            -14.7573605720      -11.8812724159      -14.7898963352  W2        3259            0.0000000000
      9777      3259  TIP3      H2            -14.0426905720      -12.0655624159      -16.1116963352  W2        3259            0.0000000000
      9778      3260  TIP3      OH2           -15.0086305720      -13.5043924159       -3.1197863352  W2        3260            0.0000000000
      9779      3260  TIP3      H1            -15.6270205720      -12.8297324159       -2.8393163352  W2        3260            0.0000000000
      9780      3260  TIP3      H2            -14.6645105720      -13.1830024159       -3.9531663352  W2        3260            0.0000000000
      9781      3261  TIP3      OH2           -13.2265205720      -13.1539224159      -17.2134263352  W2        3261            0.0000000000
      9782      3261  TIP3      H1            -13.4070205720      -13.3088024159      -18.1405963352  W2        3261            0.0000000000
      9783      3261  TIP3      H2            -12.2764705720      -13.0460524159      -17.1686363352  W2        3261            0.0000000000
      9784      3262  TIP3      OH2            -9.9888105720      -11.0328624159        0.1576936648  W2        3262            0.0000000000
      9785      3262  TIP3      H1             -9.0356905720      -10.9489524159        0.1302936648  W2        3262            0.0000000000
      9786      3262  TIP3      H2            -10.1493505720      -11.7446824159        0.7771836648  W2        3262            0.0000000000
      9787      3263  TIP3      OH2            -3.8366905720      -10.7995024159      -17.7676163352  W2        3263            0.0000000000
      9788      3263  TIP3      H1             -4.1102105720      -11.2239524159      -18.5807863352  W2        3263            0.0000000000
      9789      3263  TIP3      H2             -3.7972805720       -9.8680524159      -17.9845763352  W2        3263            0.0000000000
      9790      3264  TIP3      OH2           -14.6692605720      -16.1493124159       -2.0374763352  W2        3264            0.0000000000
      9791      3264  TIP3      H1            -14.5191705720      -16.8781824159       -2.6395063352  W2        3264            0.0000000000
      9792      3264  TIP3      H2            -14.6670205720      -15.3721424159       -2.5962563352  W2        3264            0.0000000000
      9793      3265  TIP3      OH2           -14.2566905720      -17.7797324159       -4.5447363352  W2        3265            0.0000000000
      9794      3265  TIP3      H1            -13.7209405720      -17.3280624159       -5.1968063352  W2        3265            0.0000000000
      9795      3265  TIP3      H2            -15.1087305720      -17.8877524159       -4.9673263352  W2        3265            0.0000000000
      9796      3266  TIP3      OH2           -12.6748505720      -12.3401124159       -4.3052163352  W2        3266            0.0000000000
      9797      3266  TIP3      H1            -11.9243705720      -12.4963624159       -4.8784363352  W2        3266            0.0000000000
      9798      3266  TIP3      H2            -13.0140205720      -11.4884524159       -4.5806663352  W2        3266            0.0000000000
      9799      3267  TIP3      OH2            -8.2592305720      -14.5249324159        0.7233136648  W2        3267            0.0000000000
      9800      3267  TIP3      H1             -8.0671005720      -15.4559924159        0.6117636648  W2        3267            0.0000000000
      9801      3267  TIP3      H2             -7.4016005720      -14.0999824159        0.7128536648  W2        3267            0.0000000000
      9802      3268  TIP3      OH2            -6.9425105720      -11.7364124159       -1.1994163352  W2        3268            0.0000000000
      9803      3268  TIP3      H1             -7.2240105720      -11.0269524159       -1.7770363352  W2        3268            0.0000000000
      9804      3268  TIP3      H2             -6.0000805720      -11.8091124159       -1.3502963352  W2        3268            0.0000000000
      9805      3269  TIP3      OH2           -16.1906305720      -14.9509624159       -0.1259163352  W2        3269            0.0000000000
      9806      3269  TIP3      H1            -16.9577305720      -15.4834824159       -0.3361563352  W2        3269            0.0000000000
      9807      3269  TIP3      H2            -15.5117305720      -15.2609224159       -0.7252863352  W2        3269            0.0000000000
      9808      3270  TIP3      OH2           -13.4511405720      -20.3231624159       -4.1133763352  W2        3270            0.0000000000
      9809      3270  TIP3      H1            -13.5491805720      -19.3768424159       -4.2187563352  W2        3270            0.0000000000
      9810      3270  TIP3      H2            -14.1935205720      -20.6957824159       -4.5890263352  W2        3270            0.0000000000
      9811      3271  TIP3      OH2           -12.1870905720      -16.0016224159       -0.5495363352  W2        3271            0.0000000000
      9812      3271  TIP3      H1            -12.4225505720      -16.2209524159        0.3519536648  W2        3271            0.0000000000
      9813      3271  TIP3      H2            -12.9704005720      -16.2085024159       -1.0592863352  W2        3271            0.0000000000
      9814      3272  TIP3      OH2            -9.4714305720      -16.8742724159       -1.4741863352  W2        3272            0.0000000000
      9815      3272  TIP3      H1            -10.4188905720      -16.8423024159       -1.3418563352  W2        3272            0.0000000000
      9816      3272  TIP3      H2             -9.1587605720      -17.4995624159       -0.8203663352  W2        3272            0.0000000000
      9817      3273  TIP3      OH2            -7.8372805720      -18.2401624159        0.5310036648  W2        3273            0.0000000000
      9818      3273  TIP3      H1             -7.9341005720      -19.1924324159        0.5251936648  W2        3273            0.0000000000
      9819      3273  TIP3      H2             -8.1589705720      -17.9714824159        1.3915536648  W2        3273            0.0000000000
      9820      3274  TIP3      OH2           -18.0103505720      -17.0305824159       -0.4214463352  W2        3274            0.0000000000
      9821      3274  TIP3      H1            -17.7986105720      -17.7369724159       -1.0316963352  W2        3274            0.0000000000
      9822      3274  TIP3      H2            -18.1216005720      -17.4679824159        0.4226736648  W2        3274            0.0000000000
      9823      3275  TIP3      OH2           -13.2293305720      -21.0294224159       -1.4420963352  W2        3275            0.0000000000
      9824      3275  TIP3      H1            -12.5174905720      -21.6692024159       -1.4561863352  W2        3275            0.0000000000
      9825      3275  TIP3      H2            -13.3302905720      -20.7625924159       -2.3557863352  W2        3275            0.0000000000
      9826      3276  TIP3      OH2           -12.8755805720      -19.3465824159        0.6115336648  W2        3276            0.0000000000
      9827      3276  TIP3      H1            -13.0073605720      -19.8222024159       -0.2086163352  W2        3276            0.0000000000
      9828      3276  TIP3      H2            -13.4748405720      -18.6022224159        0.5562436648  W2        3276            0.0000000000
      9829      3277  TIP3      OH2           -13.3293505720       -2.4635524159      -16.2120663352  W2        3277            0.0000000000
      9830      3277  TIP3      H1            -12.3962805720       -2.3056824159      -16.0682263352  W2        3277            0.0000000000
      9831      3277  TIP3      H2            -13.5934705720       -1.7882524159      -16.8369163352  W2        3277            0.0000000000
      9832      3278  TIP3      OH2           -19.7608605720       -7.8271724159      -16.7292563352  W2        3278            0.0000000000
      9833      3278  TIP3      H1            -18.8469405720       -7.7482824159      -16.4558663352  W2        3278            0.0000000000
      9834      3278  TIP3      H2            -19.7535505720       -8.5142124159      -17.3956963352  W2        3278            0.0000000000
      9835      3279  TIP3      OH2           -21.1118005720       -2.4343224159      -11.6518663352  W2        3279            0.0000000000
      9836      3279  TIP3      H1            -21.7590905720       -2.8961524159      -12.1847463352  W2        3279            0.0000000000
      9837      3279  TIP3      H2            -20.7573405720       -3.1059924159      -11.0692463352  W2        3279            0.0000000000
      9838      3280  TIP3      OH2           -20.2418805720       -4.3536224159       -9.8472463352  W2        3280            0.0000000000
      9839      3280  TIP3      H1            -20.5762005720       -5.2338924159       -9.6752263352  W2        3280            0.0000000000
      9840      3280  TIP3      H2            -20.0196405720       -4.0081224159       -8.9826863352  W2        3280            0.0000000000
      9841      3281  TIP3      OH2            -2.6934005720       -3.5439824159       -6.8667663352  W2        3281            0.0000000000
      9842      3281  TIP3      H1             -2.7147305720       -3.3591424159       -5.9278263352  W2        3281            0.0000000000
      9843      3281  TIP3      H2             -2.0027805720       -2.9755824159       -7.2076263352  W2        3281            0.0000000000
      9844      3282  TIP3      OH2            -3.1301105720       -3.9768724159       -3.9448563352  W2        3282            0.0000000000
      9845      3282  TIP3      H1             -3.6172405720       -4.7124624159       -4.3161163352  W2        3282            0.0000000000
      9846      3282  TIP3      H2             -2.5808405720       -4.3704824159       -3.2669163352  W2        3282            0.0000000000
      9847      3283  TIP3      OH2            -4.6793805720       -8.1870624159        0.6931736648  W2        3283            0.0000000000
      9848      3283  TIP3      H1             -5.5452705720       -8.2920924159        1.0874036648  W2        3283            0.0000000000
      9849      3283  TIP3      H2             -4.3027905720       -7.4287324159        1.1396436648  W2        3283            0.0000000000
      9850      3284  TIP3      OH2            -3.3784105720       -9.9306924159      -13.7925763352  W2        3284            0.0000000000
      9851      3284  TIP3      H1             -2.5282705720       -9.5096024159      -13.6654163352  W2        3284            0.0000000000
      9852      3284  TIP3      H2             -3.3729005720      -10.6706824159      -13.1854363352  W2        3284            0.0000000000
      9853      3285  TIP3      OH2            -2.9838505720      -11.8769524159      -11.9690063352  W2        3285            0.0000000000
      9854      3285  TIP3      H1             -3.7103905720      -12.3566924159      -11.5712463352  W2        3285            0.0000000000
      9855      3285  TIP3      H2             -2.4025205720      -11.6714824159      -11.2368463352  W2        3285            0.0000000000
      9856      3286  TIP3      OH2            -3.2247305720       -9.0922024159       -7.0212463352  W2        3286            0.0000000000
      9857      3286  TIP3      H1             -2.3913105720       -9.4702024159       -7.3018863352  W2        3286            0.0000000000
      9858      3286  TIP3      H2             -3.1127005720       -8.1490824159       -7.1403363352  W2        3286            0.0000000000
      9859      3287  TIP3      OH2            -4.7385005720       -6.2144524159       -4.7144063352  W2        3287            0.0000000000
      9860      3287  TIP3      H1             -5.3859705720       -5.8893024159       -4.0888863352  W2        3287            0.0000000000
      9861      3287  TIP3      H2             -5.2561005720       -6.6546824159       -5.3885763352  W2        3287            0.0000000000
      9862      3288  TIP3      OH2            -2.7155405720      -11.9761024159      -15.5778763352  W2        3288            0.0000000000
      9863      3288  TIP3      H1             -3.2374305720      -11.6196924159      -16.2967863352  W2        3288            0.0000000000
      9864      3288  TIP3      H2             -2.7486205720      -11.3013224159      -14.8997863352  W2        3288            0.0000000000
      9865      3289  TIP3      OH2            -4.3666405720      -14.7365424159      -17.0271663352  W2        3289            0.0000000000
      9866      3289  TIP3      H1             -4.2702005720      -14.0698424159      -17.7071963352  W2        3289            0.0000000000
      9867      3289  TIP3      H2             -4.5066805720      -15.5519124159      -17.5086163352  W2        3289            0.0000000000
      9868      3290  TIP3      OH2            -5.1971705720      -13.3563024159      -11.4061363352  W2        3290            0.0000000000
      9869      3290  TIP3      H1             -5.3472905720      -14.3014424159      -11.4263563352  W2        3290            0.0000000000
      9870      3290  TIP3      H2             -5.5507205720      -13.0751624159      -10.5622263352  W2        3290            0.0000000000
      9871      3291  TIP3      OH2           -20.1619305720      -11.2780824159       -7.3957563352  W2        3291            0.0000000000
      9872      3291  TIP3      H1            -19.9776405720      -11.3599124159       -8.3314663352  W2        3291            0.0000000000
      9873      3291  TIP3      H2            -19.3126405720      -11.4023824159       -6.9721163352  W2        3291            0.0000000000
      9874      3292  TIP3      OH2            -4.3408805720      -11.3859724159       -1.7673063352  W2        3292            0.0000000000
      9875      3292  TIP3      H1             -3.7581505720      -12.1207424159       -1.5755863352  W2        3292            0.0000000000
      9876      3292  TIP3      H2             -3.7769505720      -10.6139424159       -1.7207263352  W2        3292            0.0000000000
      9877      3293  TIP3      OH2            -2.8441705720      -13.4833924159       -1.0827663352  W2        3293            0.0000000000
      9878      3293  TIP3      H1             -3.7075005720      -13.8621824159       -1.2482963352  W2        3293            0.0000000000
      9879      3293  TIP3      H2             -2.2398005720      -14.2219124159       -1.1571863352  W2        3293            0.0000000000
      9880      3294  TIP3      OH2            -5.1192605720      -17.3285624159      -17.9096163352  W2        3294            0.0000000000
      9881      3294  TIP3      H1             -4.5086805720      -17.6998824159      -17.2727963352  W2        3294            0.0000000000
      9882      3294  TIP3      H2             -5.9561105720      -17.7498724159      -17.7136163352  W2        3294            0.0000000000
      9883      3295  TIP3      OH2            -5.4866905720      -15.7737224159      -12.9436263352  W2        3295            0.0000000000
      9884      3295  TIP3      H1             -5.2069805720      -16.6806824159      -12.8194563352  W2        3295            0.0000000000
      9885      3295  TIP3      H2             -4.7275205720      -15.3395724159      -13.3327063352  W2        3295            0.0000000000
      9886      3296  TIP3      OH2            -4.8748605720      -15.1919824159       -7.5077363352  W2        3296            0.0000000000
      9887      3296  TIP3      H1             -3.9420605720      -14.9799924159       -7.5421363352  W2        3296            0.0000000000
      9888      3296  TIP3      H2             -5.1101105720      -15.0907724159       -6.5854363352  W2        3296            0.0000000000
      9889      3297  TIP3      OH2            -4.8456705720      -14.4554524159       -4.7317963352  W2        3297            0.0000000000
      9890      3297  TIP3      H1             -5.6885405720      -14.1874124159       -4.3658163352  W2        3297            0.0000000000
      9891      3297  TIP3      H2             -4.4032405720      -13.6332624159       -4.9426863352  W2        3297            0.0000000000
      9892      3298  TIP3      OH2           -20.5644505720      -16.0075824159       -1.2548763352  W2        3298            0.0000000000
      9893      3298  TIP3      H1            -19.6449605720      -16.1297524159       -1.0185663352  W2        3298            0.0000000000
      9894      3298  TIP3      H2            -21.0140005720      -16.7576124159       -0.8655263352  W2        3298            0.0000000000
      9895      3299  TIP3      OH2            -2.5625105720      -20.4754324159        0.6217036648  W2        3299            0.0000000000
      9896      3299  TIP3      H1             -2.2128105720      -21.1290824159        0.0161736648  W2        3299            0.0000000000
      9897      3299  TIP3      H2             -2.4155605720      -19.6380224159        0.1819636648  W2        3299            0.0000000000
      9898      3300  TIP3      OH2            -4.8732105720      -18.5107924159      -12.8954263352  W2        3300            0.0000000000
      9899      3300  TIP3      H1             -4.6907105720      -18.9596424159      -12.0699263352  W2        3300            0.0000000000
      9900      3300  TIP3      H2             -5.4729205720      -19.0953524159      -13.3589663352  W2        3300            0.0000000000
      9901      3301  TIP3      OH2           -19.3432005720      -17.6954224159       -8.3635863352  W2        3301            0.0000000000
      9902      3301  TIP3      H1            -18.8980405720      -18.4871724159       -8.0616163352  W2        3301            0.0000000000
      9903      3301  TIP3      H2            -18.8769005720      -16.9789024159       -7.9330263352  W2        3301            0.0000000000
      9904      3302  TIP3      OH2           -21.0391705720      -14.6961224159       -7.2945663352  W2        3302            0.0000000000
      9905      3302  TIP3      H1            -20.5471905720      -14.9170724159       -8.0853663352  W2        3302            0.0000000000
      9906      3302  TIP3      H2            -20.6770805720      -13.8557824159       -7.0136163352  W2        3302            0.0000000000
      9907      3303  TIP3      OH2            -3.0427905720      -18.3659724159       -1.0291663352  W2        3303            0.0000000000
      9908      3303  TIP3      H1             -3.9602205720      -18.0952624159       -1.0648163352  W2        3303            0.0000000000
      9909      3303  TIP3      H2             -2.9198505720      -18.9011324159       -1.8131963352  W2        3303            0.0000000000
      9910      3304  TIP3      OH2            -3.0065905720      -18.4429824159      -16.3673963352  W2        3304            0.0000000000
      9911      3304  TIP3      H1             -2.5943305720      -19.1644124159      -16.8425963352  W2        3304            0.0000000000
      9912      3304  TIP3      H2             -2.3249405720      -17.7735224159      -16.3089663352  W2        3304            0.0000000000
      9913      3305  TIP3      OH2           -20.7255205720      -18.4382124159      -13.2403263352  W2        3305            0.0000000000
      9914      3305  TIP3      H1            -21.6506805720      -18.2295524159      -13.3697763352  W2        3305            0.0000000000
      9915      3305  TIP3      H2            -20.2715305720      -17.9541324159      -13.9300963352  W2        3305            0.0000000000
      9916      3306  TIP3      OH2            -5.9548005720       -3.4540424159      -11.2945863352  W2        3306            0.0000000000
      9917      3306  TIP3      H1             -5.3025105720       -3.8018324159      -11.9026763352  W2        3306            0.0000000000
      9918      3306  TIP3      H2             -5.4444205720       -2.9657224159      -10.6486163352  W2        3306            0.0000000000
      9919      3307  TIP3      OH2           -20.7619805720      -19.7003124159       -4.8960763352  W2        3307            0.0000000000
      9920      3307  TIP3      H1            -21.4269305720      -19.9462824159       -4.2529863352  W2        3307            0.0000000000
      9921      3307  TIP3      H2            -21.2048505720      -19.0782724159       -5.4732763352  W2        3307            0.0000000000
      9922      3308  TIP3      OH2           -18.5700505720       -6.5249024159       -0.7514963352  W2        3308            0.0000000000
      9923      3308  TIP3      H1            -19.3908005720       -6.3502524159       -1.2120263352  W2        3308            0.0000000000
      9924      3308  TIP3      H2            -18.8222705720       -6.5984324159        0.1689436648  W2        3308            0.0000000000
      9925      3309  TIP3      OH2           -15.6157605720       -5.5507824159       -4.4930963352  W2        3309            0.0000000000
      9926      3309  TIP3      H1            -16.0406505720       -4.7409324159       -4.7756363352  W2        3309            0.0000000000
      9927      3309  TIP3      H2            -14.7114805720       -5.4653724159       -4.7951163352  W2        3309            0.0000000000
      9928      3310  TIP3      OH2           -11.3046205720       -4.1517824159       -1.5337263352  W2        3310            0.0000000000
      9929      3310  TIP3      H1            -11.1198705720       -4.4851724159       -0.6556963352  W2        3310            0.0000000000
      9930      3310  TIP3      H2            -10.4581705720       -3.8419224159       -1.8558063352  W2        3310            0.0000000000
      9931      3311  TIP3      OH2            -8.9595805720       -2.8658924159       -2.2895863352  W2        3311            0.0000000000
      9932      3311  TIP3      H1             -8.2826905720       -3.4986624159       -2.5296663352  W2        3311            0.0000000000
      9933      3311  TIP3      H2             -8.6377005720       -2.4648424159       -1.4822563352  W2        3311            0.0000000000
      9934      3312  TIP3      OH2            -4.0422005720      -20.2763424159       -3.2100863352  W2        3312            0.0000000000
      9935      3312  TIP3      H1             -4.8548505720      -19.9513124159       -3.5976163352  W2        3312            0.0000000000
      9936      3312  TIP3      H2             -3.8093505720      -21.0364924159       -3.7431763352  W2        3312            0.0000000000
      9937      3313  TIP3      OH2           -18.2140905720       -2.2943924159       -4.4455663352  W2        3313            0.0000000000
      9938      3313  TIP3      H1            -18.9344505720       -1.8542924159       -4.8967963352  W2        3313            0.0000000000
      9939      3313  TIP3      H2            -18.5796905720       -2.5449224159       -3.5971663352  W2        3313            0.0000000000
      9940      3314  TIP3      OH2           -15.7468305720       -2.6940024159       -5.4158463352  W2        3314            0.0000000000
      9941      3314  TIP3      H1            -16.6116105720       -2.6221524159       -5.0118363352  W2        3314            0.0000000000
      9942      3314  TIP3      H2            -15.8019305720       -2.1472724159       -6.1995963352  W2        3314            0.0000000000
      9943      3315  TIP3      OH2           -11.0362705720       -2.8061124159       -6.2402463352  W2        3315            0.0000000000
      9944      3315  TIP3      H1            -11.4928705720       -2.2771424159       -6.8944063352  W2        3315            0.0000000000
      9945      3315  TIP3      H2            -10.8734705720       -2.2029724159       -5.5150163352  W2        3315            0.0000000000
      9946      3316  TIP3      OH2            -8.7086405720       -3.9281524159       -5.2952163352  W2        3316            0.0000000000
      9947      3316  TIP3      H1             -9.6132705720       -3.7631324159       -5.5610063352  W2        3316            0.0000000000
      9948      3316  TIP3      H2             -8.2797805720       -3.0749324159       -5.3608763352  W2        3316            0.0000000000
      9949      3317  TIP3      OH2            -6.1044505720       -2.3582424159       -5.0004363352  W2        3317            0.0000000000
      9950      3317  TIP3      H1             -6.2862505720       -1.4423524159       -5.2109463352  W2        3317            0.0000000000
      9951      3317  TIP3      H2             -5.9276705720       -2.7685324159       -5.8469763352  W2        3317            0.0000000000
      9952      3318  TIP3      OH2           -18.7992805720       -3.6711424159       -7.5353863352  W2        3318            0.0000000000
      9953      3318  TIP3      H1            -18.8176805720       -4.0966324159       -6.6781563352  W2        3318            0.0000000000
      9954      3318  TIP3      H2            -17.9944905720       -3.9896424159       -7.9441663352  W2        3318            0.0000000000
      9955      3319  TIP3      OH2           -16.6579705720       -4.9612724159       -8.8803963352  W2        3319            0.0000000000
      9956      3319  TIP3      H1            -16.8769005720       -5.8775324159       -8.7107963352  W2        3319            0.0000000000
      9957      3319  TIP3      H2            -15.8337505720       -4.8212324159       -8.4142563352  W2        3319            0.0000000000
      9958      3320  TIP3      OH2           -14.1207205720       -4.4913424159       -8.0315963352  W2        3320            0.0000000000
      9959      3320  TIP3      H1            -13.9081505720       -5.3794424159       -8.3185063352  W2        3320            0.0000000000
      9960      3320  TIP3      H2            -14.0562105720       -4.5255724159       -7.0771963352  W2        3320            0.0000000000
      9961      3321  TIP3      OH2           -10.6123505720      -18.8272824159       -8.8872663352  W2        3321            0.0000000000
      9962      3321  TIP3      H1            -11.2866705720      -19.4567224159       -8.6316863352  W2        3321            0.0000000000
      9963      3321  TIP3      H2            -10.0484305720      -19.3113924159       -9.4904763352  W2        3321            0.0000000000
      9964      3322  TIP3      OH2            -5.4696305720      -20.7198824159       -8.7745563352  W2        3322            0.0000000000
      9965      3322  TIP3      H1             -4.8658705720      -20.1723424159       -9.2764563352  W2        3322            0.0000000000
      9966      3322  TIP3      H2             -6.3394305720      -20.4008424159       -9.0151463352  W2        3322            0.0000000000
      9967      3323  TIP3      OH2            -3.7425905720      -19.5810124159      -10.4414663352  W2        3323            0.0000000000
      9968      3323  TIP3      H1             -3.1308405720      -20.0954424159      -10.9681063352  W2        3323            0.0000000000
      9969      3323  TIP3      H2             -3.3602505720      -18.7038024159      -10.4180263352  W2        3323            0.0000000000
      9970      3324  TIP3      OH2           -18.2856005720      -20.1932524159      -11.0652763352  W2        3324            0.0000000000
      9971      3324  TIP3      H1            -19.0626205720      -20.4277624159      -11.5726863352  W2        3324            0.0000000000
      9972      3324  TIP3      H2            -17.7552405720      -20.9900424159      -11.0564763352  W2        3324            0.0000000000
      9973      3325  TIP3      OH2           -19.4492605720      -20.3954424159      -15.2616663352  W2        3325            0.0000000000
      9974      3325  TIP3      H1            -19.0101905720      -19.7843924159      -15.8533163352  W2        3325            0.0000000000
      9975      3325  TIP3      H2            -20.0830205720      -19.8570324159      -14.7876663352  W2        3325            0.0000000000
      9976      3326  TIP3      OH2           -13.7063405720      -20.2665424159      -11.2519663352  W2        3326            0.0000000000
      9977      3326  TIP3      H1            -12.8320005720      -19.8781124159      -11.2815363352  W2        3326            0.0000000000
      9978      3326  TIP3      H2            -13.8422605720      -20.4817624159      -10.3292463352  W2        3326            0.0000000000
      9979      3327  TIP3      OH2            -8.1495005720      -20.2365624159       -9.6027963352  W2        3327            0.0000000000
      9980      3327  TIP3      H1             -8.0733405720      -20.1414024159      -10.5521963352  W2        3327            0.0000000000
      9981      3327  TIP3      H2             -8.4245805720      -21.1442724159       -9.4738863352  W2        3327            0.0000000000
      9982      3328  TIP3      OH2            -6.7962405720      -20.2107824159      -13.9102963352  W2        3328            0.0000000000
      9983      3328  TIP3      H1             -7.4991305720      -19.5958624159      -14.1201563352  W2        3328            0.0000000000
      9984      3328  TIP3      H2             -7.2411005720      -21.0481124159      -13.7792063352  W2        3328            0.0000000000
      9985      3329  TIP3      OH2           -19.5483105720       -4.4472224159      -14.3641563352  W2        3329            0.0000000000
      9986      3329  TIP3      H1            -20.2333205720       -4.4853324159      -15.0316463352  W2        3329            0.0000000000
      9987      3329  TIP3      H2            -19.5445905720       -3.5344624159      -14.0759463352  W2        3329            0.0000000000
      9988      3330  TIP3      OH2           -17.5883505720      -18.4792924159      -16.8192563352  W2        3330            0.0000000000
      9989      3330  TIP3      H1            -17.0970105720      -19.1090524159      -17.3467063352  W2        3330            0.0000000000
      9990      3330  TIP3      H2            -16.9647205720      -18.1833524159      -16.1561363352  W2        3330            0.0000000000
      9991      3331  TIP3      OH2           -12.5623405720      -18.1861424159      -14.3622063352  W2        3331            0.0000000000
      9992      3331  TIP3      H1            -12.3842105720      -18.8328224159      -13.6793463352  W2        3331            0.0000000000
      9993      3331  TIP3      H2            -12.6157205720      -17.3523724159      -13.8950963352  W2        3331            0.0000000000
      9994      3332  TIP3      OH2           -10.6839605720       -3.2377324159      -15.9665363352  W2        3332            0.0000000000
      9995      3332  TIP3      H1             -9.8179405720       -2.8709924159      -16.1447163352  W2        3332            0.0000000000
      9996      3332  TIP3      H2            -10.9306805720       -3.6769324159      -16.7804563352  W2        3332            0.0000000000
      9997      3333  TIP3      OH2            -3.9750005720       -3.6747024159      -13.2874263352  W2        3333            0.0000000000
      9998      3333  TIP3      H1             -4.1692905720       -4.4224924159      -13.8524663352  W2        3333            0.0000000000
      9999      3333  TIP3      H2             -4.0139905720       -2.9166924159      -13.8706363352  W2        3333            0.0000000000
     10000      3334  TIP3      OH2           -18.3278005720      -19.6790624159       -1.5476563352  W2        3334            0.0000000000
     10001      3334  TIP3      H1            -18.6939805720      -20.4448024159       -1.1051863352  W2        3334            0.0000000000
     10002      3334  TIP3      H2            -17.4149505720      -19.6500424159       -1.2611463352  W2        3334            0.0000000000
     10003      3335  TIP3      OH2           -16.3547205720      -20.3286224159       -0.0119463352  W2        3335            0.0000000000
     10004      3335  TIP3      H1            -15.4563605720      -20.6026024159       -0.1966063352  W2        3335            0.0000000000
     10005      3335  TIP3      H2            -16.7414105720      -21.0710224159        0.4523136648  W2        3335            0.0000000000
     10006      3336  TIP3      OH2           -17.7301905720       -3.5271424159      -17.3389463352  W2        3336            0.0000000000
     10007      3336  TIP3      H1            -17.9977305720       -3.2408524159      -16.4656363352  W2        3336            0.0000000000
     10008      3336  TIP3      H2            -16.9589305720       -4.0732224159      -17.1866963352  W2        3336            0.0000000000
     10009      3337  TIP3      OH2            -7.9334905720      -20.9960924159        0.1703336648  W2        3337            0.0000000000
     10010      3337  TIP3      H1             -7.8567705720      -21.4220224159        1.0241036648  W2        3337            0.0000000000
     10011      3337  TIP3      H2             -7.0398305720      -20.9826224159       -0.1723163352  W2        3337            0.0000000000
     10012      3338  TIP3      OH2            -4.7573805720       -4.9234624159       -1.1372463352  W2        3338            0.0000000000
     10013      3338  TIP3      H1             -5.5391905720       -5.1096624159       -1.6571863352  W2        3338            0.0000000000
     10014      3338  TIP3      H2             -4.8293905720       -3.9940324159       -0.9199963352  W2        3338            0.0000000000
     10015      3339  TIP3      OH2             9.6486594280      -11.0370224159      -11.1065263352  W2        3339            0.0000000000
     10016      3339  TIP3      H1              9.7377694280      -10.0932024159      -11.2388163352  W2        3339            0.0000000000
     10017      3339  TIP3      H2              9.0104194280      -11.3123824159      -11.7645863352  W2        3339            0.0000000000
     10018      3340  TIP3      OH2             8.5817894280      -11.7819524159       -7.6877063352  W2        3340            0.0000000000
     10019      3340  TIP3      H1              8.5435394280      -12.4283224159       -6.9827463352  W2        3340            0.0000000000
     10020      3340  TIP3      H2              8.2594394280      -12.2485124159       -8.4588363352  W2        3340            0.0000000000
     10021      3341  TIP3      OH2             0.9502894280      -12.1677424159       -6.0947163352  W2        3341            0.0000000000
     10022      3341  TIP3      H1              0.9914994280      -12.7934124159       -5.3714763352  W2        3341            0.0000000000
     10023      3341  TIP3      H2              1.6530594280      -11.5438824159       -5.9126763352  W2        3341            0.0000000000
     10024      3342  TIP3      OH2            12.2878094280       -8.8429124159       -9.3861963352  W2        3342            0.0000000000
     10025      3342  TIP3      H1             11.8470794280       -9.5633124159       -8.9356363352  W2        3342            0.0000000000
     10026      3342  TIP3      H2             12.2747794280       -8.1221924159       -8.7564263352  W2        3342            0.0000000000
     10027      3343  TIP3      OH2             1.8735994280       -7.7178524159       -7.5598063352  W2        3343            0.0000000000
     10028      3343  TIP3      H1              1.5041194280       -8.5198024159       -7.9293763352  W2        3343            0.0000000000
     10029      3343  TIP3      H2              2.8147094280       -7.8863624159       -7.5134663352  W2        3343            0.0000000000
     10030      3344  TIP3      OH2            -1.5163505720      -14.0575924159      -12.1669263352  W2        3344            0.0000000000
     10031      3344  TIP3      H1             -1.9640105720      -13.2117224159      -12.1852763352  W2        3344            0.0000000000
     10032      3344  TIP3      H2             -2.0772305720      -14.6371724159      -12.6824163352  W2        3344            0.0000000000
     10033      3345  TIP3      OH2            -0.8057405720      -11.8956324159      -10.0411263352  W2        3345            0.0000000000
     10034      3345  TIP3      H1             -0.5923905720      -12.6654724159       -9.5138263352  W2        3345            0.0000000000
     10035      3345  TIP3      H2             -0.0679805720      -11.8059624159      -10.6443663352  W2        3345            0.0000000000
     10036      3346  TIP3      OH2             9.3993594280       -3.7387424159       -9.1741563352  W2        3346            0.0000000000
     10037      3346  TIP3      H1             10.0189994280       -4.4152724159       -9.4472363352  W2        3346            0.0000000000
     10038      3346  TIP3      H2              9.1910994280       -3.9566624159       -8.2656663352  W2        3346            0.0000000000
     10039      3347  TIP3      OH2             6.9712294280       -9.3498124159       -7.2816063352  W2        3347            0.0000000000
     10040      3347  TIP3      H1              7.2750194280      -10.0356724159       -7.8761963352  W2        3347            0.0000000000
     10041      3347  TIP3      H2              7.6926294280       -9.2309424159       -6.6638063352  W2        3347            0.0000000000
     10042      3348  TIP3      OH2            15.6342094280      -17.7482824159       -6.4209863352  W2        3348            0.0000000000
     10043      3348  TIP3      H1             15.6834294280      -17.1381624159       -5.6850763352  W2        3348            0.0000000000
     10044      3348  TIP3      H2             16.0597194280      -17.2871924159       -7.1438763352  W2        3348            0.0000000000
     10045      3349  TIP3      OH2            10.1119294280      -14.9555724159       -6.9541263352  W2        3349            0.0000000000
     10046      3349  TIP3      H1             10.2545194280      -15.9018724159       -6.9339663352  W2        3349            0.0000000000
     10047      3349  TIP3      H2             10.0058294280      -14.7485924159       -7.8826363352  W2        3349            0.0000000000
     10048      3350  TIP3      OH2             3.2667594280      -16.8539324159       -9.6816463352  W2        3350            0.0000000000
     10049      3350  TIP3      H1              3.3098694280      -15.9940824159      -10.1000163352  W2        3350            0.0000000000
     10050      3350  TIP3      H2              2.8091694280      -17.4064624159      -10.3153263352  W2        3350            0.0000000000
     10051      3351  TIP3      OH2            10.9890294280      -16.7233724159      -11.2808163352  W2        3351            0.0000000000
     10052      3351  TIP3      H1             11.6354594280      -17.0520524159      -10.6560563352  W2        3351            0.0000000000
     10053      3351  TIP3      H2             11.4989694280      -16.2054724159      -11.9036763352  W2        3351            0.0000000000
     10054      3352  TIP3      OH2            -0.1130905720      -14.4573524159       -8.9195063352  W2        3352            0.0000000000
     10055      3352  TIP3      H1              0.5405694280      -15.0071824159       -8.4874963352  W2        3352            0.0000000000
     10056      3352  TIP3      H2             -0.0891605720      -14.7314524159       -9.8363063352  W2        3352            0.0000000000
     10057      3353  TIP3      OH2             5.0433594280      -12.9072224159       -9.7043563352  W2        3353            0.0000000000
     10058      3353  TIP3      H1              5.6594594280      -13.4336824159       -9.1949563352  W2        3353            0.0000000000
     10059      3353  TIP3      H2              4.4572394280      -13.5473524159      -10.1079963352  W2        3353            0.0000000000
     10060      3354  TIP3      OH2            16.0256694280      -16.2703624159       -4.1850063352  W2        3354            0.0000000000
     10061      3354  TIP3      H1             15.3371294280      -15.6122924159       -4.2803463352  W2        3354            0.0000000000
     10062      3354  TIP3      H2             16.0411294280      -16.4675724159       -3.2484663352  W2        3354            0.0000000000
     10063      3355  TIP3      OH2             2.0769494280      -17.9360924159       -5.6075663352  W2        3355            0.0000000000
     10064      3355  TIP3      H1              1.8581194280      -17.4060324159       -6.3739663352  W2        3355            0.0000000000
     10065      3355  TIP3      H2              1.4090394280      -17.7095424159       -4.9604263352  W2        3355            0.0000000000
     10066      3356  TIP3      OH2             9.4459294280       -8.4359824159      -12.0636563352  W2        3356            0.0000000000
     10067      3356  TIP3      H1              9.1504394280       -8.7587524159      -12.9149663352  W2        3356            0.0000000000
     10068      3356  TIP3      H2              9.1217094280       -7.5363124159      -12.0223963352  W2        3356            0.0000000000
     10069      3357  TIP3      OH2             4.6460894280      -10.2605224159       -5.3201963352  W2        3357            0.0000000000
     10070      3357  TIP3      H1              3.9059994280       -9.6623724159       -5.2166763352  W2        3357            0.0000000000
     10071      3357  TIP3      H2              5.3600394280       -9.7065624159       -5.6358363352  W2        3357            0.0000000000
     10072      3358  TIP3      OH2            12.7528694280      -17.4324424159       -9.3002263352  W2        3358            0.0000000000
     10073      3358  TIP3      H1             12.5376694280      -18.1981024159       -8.7676263352  W2        3358            0.0000000000
     10074      3358  TIP3      H2             13.4086094280      -16.9599824159       -8.7873763352  W2        3358            0.0000000000
     10075      3359  TIP3      OH2             1.6706794280      -16.0439124159       -7.6553463352  W2        3359            0.0000000000
     10076      3359  TIP3      H1              2.2843094280      -15.4111524159       -7.2821063352  W2        3359            0.0000000000
     10077      3359  TIP3      H2              2.1827494280      -16.5164124159       -8.3116563352  W2        3359            0.0000000000
     10078      3360  TIP3      OH2             3.0535194280       -8.2962224159       -4.5330463352  W2        3360            0.0000000000
     10079      3360  TIP3      H1              3.0482794280       -7.4168724159       -4.9111163352  W2        3360            0.0000000000
     10080      3360  TIP3      H2              2.1999294280       -8.3798124159       -4.1080563352  W2        3360            0.0000000000
     10081      3361  TIP3      OH2            -0.8253905720       -8.6254324159      -13.7511163352  W2        3361            0.0000000000
     10082      3361  TIP3      H1             -1.0973005720       -8.3963324159      -14.6398263352  W2        3361            0.0000000000
     10083      3361  TIP3      H2             -0.7798205720       -7.7875524159      -13.2905863352  W2        3361            0.0000000000
     10084      3362  TIP3      OH2            12.7995794280       -7.0038424159       -7.0382663352  W2        3362            0.0000000000
     10085      3362  TIP3      H1             11.8579494280       -6.9454524159       -6.8765763352  W2        3362            0.0000000000
     10086      3362  TIP3      H2             13.0761894280       -6.0977924159       -7.1752963352  W2        3362            0.0000000000
     10087      3363  TIP3      OH2            13.1002794280      -18.7173124159       -5.6208763352  W2        3363            0.0000000000
     10088      3363  TIP3      H1             12.3641994280      -18.1066024159       -5.6587463352  W2        3363            0.0000000000
     10089      3363  TIP3      H2             13.7836794280      -18.3024124159       -6.1472363352  W2        3363            0.0000000000
     10090      3364  TIP3      OH2             6.1034194280      -20.6305824159       -8.1550763352  W2        3364            0.0000000000
     10091      3364  TIP3      H1              5.9858394280      -21.5789824159       -8.2092463352  W2        3364            0.0000000000
     10092      3364  TIP3      H2              5.2484294280      -20.2979724159       -7.8819663352  W2        3364            0.0000000000
     10093      3365  TIP3      OH2            11.0516994280       -5.2224924159      -10.4131063352  W2        3365            0.0000000000
     10094      3365  TIP3      H1             11.4769294280       -5.9297024159      -10.8981463352  W2        3365            0.0000000000
     10095      3365  TIP3      H2             11.3686994280       -4.4212224159      -10.8298863352  W2        3365            0.0000000000
     10096      3366  TIP3      OH2            12.2113494280       -7.3216424159      -11.9044463352  W2        3366            0.0000000000
     10097      3366  TIP3      H1             11.9538294280       -8.0116324159      -12.5158563352  W2        3366            0.0000000000
     10098      3366  TIP3      H2             12.2824294280       -7.7645224159      -11.0588563352  W2        3366            0.0000000000
     10099      3367  TIP3      OH2            13.8973694280       -8.7549724159       -3.4270963352  W2        3367            0.0000000000
     10100      3367  TIP3      H1             14.0369994280       -9.3467224159       -4.1663963352  W2        3367            0.0000000000
     10101      3367  TIP3      H2             14.0646494280       -7.8823824159       -3.7832163352  W2        3367            0.0000000000
     10102      3368  TIP3      OH2             8.3699094280      -11.7930224159      -13.6544963352  W2        3368            0.0000000000
     10103      3368  TIP3      H1              7.6584594280      -11.2580524159      -14.0064463352  W2        3368            0.0000000000
     10104      3368  TIP3      H2              9.0608694280      -11.7378124159      -14.3146063352  W2        3368            0.0000000000
     10105      3369  TIP3      OH2             8.4238294280      -13.3355924159      -16.6159963352  W2        3369            0.0000000000
     10106      3369  TIP3      H1              9.1248194280      -13.3129024159      -15.9645963352  W2        3369            0.0000000000
     10107      3369  TIP3      H2              8.7261194280      -13.9636224159      -17.2720663352  W2        3369            0.0000000000
     10108      3370  TIP3      OH2            15.7392994280      -12.4151724159       -5.3610563352  W2        3370            0.0000000000
     10109      3370  TIP3      H1             15.0867094280      -11.7206124159       -5.2719663352  W2        3370            0.0000000000
     10110      3370  TIP3      H2             16.2043294280      -12.2050824159       -6.1708963352  W2        3370            0.0000000000
     10111      3371  TIP3      OH2            11.7756794280      -11.5836924159      -12.7029063352  W2        3371            0.0000000000
     10112      3371  TIP3      H1             11.0437794280      -11.3553224159      -12.1298463352  W2        3371            0.0000000000
     10113      3371  TIP3      H2             12.2228994280      -12.2974224159      -12.2481563352  W2        3371            0.0000000000
     10114      3372  TIP3      OH2            11.6730294280      -13.4094324159       -3.6352063352  W2        3372            0.0000000000
     10115      3372  TIP3      H1             11.7529394280      -12.6459924159       -3.0633563352  W2        3372            0.0000000000
     10116      3372  TIP3      H2             11.0717994280      -13.1301924159       -4.3256963352  W2        3372            0.0000000000
     10117      3373  TIP3      OH2             3.4210494280      -10.9530724159      -10.8204063352  W2        3373            0.0000000000
     10118      3373  TIP3      H1              3.0905694280      -11.3237324159      -11.6387063352  W2        3373            0.0000000000
     10119      3373  TIP3      H2              4.0094594280      -11.6236724159      -10.4735763352  W2        3373            0.0000000000
     10120      3374  TIP3      OH2             4.7877994280       -7.5250124159       -8.1391863352  W2        3374            0.0000000000
     10121      3374  TIP3      H1              4.6929294280       -8.1037024159       -8.8957263352  W2        3374            0.0000000000
     10122      3374  TIP3      H2              5.5171594280       -7.8964424159       -7.6429063352  W2        3374            0.0000000000
     10123      3375  TIP3      OH2             3.7875994280      -12.1845124159       -7.1869063352  W2        3375            0.0000000000
     10124      3375  TIP3      H1              4.3528494280      -12.0630924159       -7.9497863352  W2        3375            0.0000000000
     10125      3375  TIP3      H2              4.1064894280      -11.5470124159       -6.5480563352  W2        3375            0.0000000000
     10126      3376  TIP3      OH2            10.0968194280       -6.6813224159       -6.4528563352  W2        3376            0.0000000000
     10127      3376  TIP3      H1              9.8564794280       -6.0190124159       -5.8049363352  W2        3376            0.0000000000
     10128      3376  TIP3      H2              9.8986394280       -7.5158024159       -6.0278963352  W2        3376            0.0000000000
     10129      3377  TIP3      OH2             4.6676694280       -7.7852424159       -2.4697163352  W2        3377            0.0000000000
     10130      3377  TIP3      H1              4.3564194280       -7.0029224159       -2.0143963352  W2        3377            0.0000000000
     10131      3377  TIP3      H2              4.0176894280       -7.9383324159       -3.1555163352  W2        3377            0.0000000000
     10132      3378  TIP3      OH2            10.6466294280      -12.4214024159      -15.0177863352  W2        3378            0.0000000000
     10133      3378  TIP3      H1             11.2261794280      -12.2713724159      -14.2708963352  W2        3378            0.0000000000
     10134      3378  TIP3      H2             11.0606294280      -11.9506624159      -15.7411463352  W2        3378            0.0000000000
     10135      3379  TIP3      OH2             1.5876594280      -11.5871324159       -3.2411463352  W2        3379            0.0000000000
     10136      3379  TIP3      H1              1.6579794280      -10.9364524159       -2.5426463352  W2        3379            0.0000000000
     10137      3379  TIP3      H2              0.6968794280      -11.4843824159       -3.5760563352  W2        3379            0.0000000000
     10138      3380  TIP3      OH2             8.3731194280       -5.6845524159      -11.5824763352  W2        3380            0.0000000000
     10139      3380  TIP3      H1              8.8468794280       -5.3889224159      -10.8050563352  W2        3380            0.0000000000
     10140      3380  TIP3      H2              7.8100494280       -4.9463924159      -11.8155163352  W2        3380            0.0000000000
     10141      3381  TIP3      OH2             2.9072594280       -5.7137424159       -1.7063363352  W2        3381            0.0000000000
     10142      3381  TIP3      H1              2.9147894280       -5.8497724159       -2.6537863352  W2        3381            0.0000000000
     10143      3381  TIP3      H2              1.9912994280       -5.8309324159       -1.4543363352  W2        3381            0.0000000000
     10144      3382  TIP3      OH2            14.3454694280      -20.6713624159      -15.2048163352  W2        3382            0.0000000000
     10145      3382  TIP3      H1             13.4455394280      -20.5324624159      -14.9097563352  W2        3382            0.0000000000
     10146      3382  TIP3      H2             14.5973094280      -19.8399024159      -15.6066463352  W2        3382            0.0000000000
     10147      3383  TIP3      OH2             2.4113194280      -11.8836424159      -13.2311263352  W2        3383            0.0000000000
     10148      3383  TIP3      H1              2.1194494280      -11.1154724159      -13.7219963352  W2        3383            0.0000000000
     10149      3383  TIP3      H2              1.7368394280      -12.5430224159      -13.3939863352  W2        3383            0.0000000000
     10150      3384  TIP3      OH2            15.5346094280       -6.3051224159      -16.8284263352  W2        3384            0.0000000000
     10151      3384  TIP3      H1             15.6079594280       -5.3661024159      -16.6578963352  W2        3384            0.0000000000
     10152      3384  TIP3      H2             16.4401194280       -6.6102624159      -16.8846963352  W2        3384            0.0000000000
     10153      3385  TIP3      OH2            -1.4956705720       -9.5207224159       -4.4161463352  W2        3385            0.0000000000
     10154      3385  TIP3      H1             -1.9968305720       -9.5487824159       -5.2311763352  W2        3385            0.0000000000
     10155      3385  TIP3      H2             -1.4903005720      -10.4264024159       -4.1064163352  W2        3385            0.0000000000
     10156      3386  TIP3      OH2            -1.7454005720       -6.7403424159       -7.5321263352  W2        3386            0.0000000000
     10157      3386  TIP3      H1             -0.7993405720       -6.8846424159       -7.5511763352  W2        3386            0.0000000000
     10158      3386  TIP3      H2             -1.8577705720       -5.9560624159       -6.9950063352  W2        3386            0.0000000000
     10159      3387  TIP3      OH2            16.4524494280       -6.0743724159       -1.8497563352  W2        3387            0.0000000000
     10160      3387  TIP3      H1             16.4031294280       -7.0295624159       -1.8869963352  W2        3387            0.0000000000
     10161      3387  TIP3      H2             15.6256794280       -5.8068424159       -1.4483763352  W2        3387            0.0000000000
     10162      3388  TIP3      OH2             7.4308494280       -6.5004524159       -2.9736163352  W2        3388            0.0000000000
     10163      3388  TIP3      H1              7.5183094280       -5.6739924159       -2.4987063352  W2        3388            0.0000000000
     10164      3388  TIP3      H2              6.5673594280       -6.8300724159       -2.7246863352  W2        3388            0.0000000000
     10165      3389  TIP3      OH2             7.8454294280       -2.7280824159      -13.1675563352  W2        3389            0.0000000000
     10166      3389  TIP3      H1              7.7700294280       -2.8493624159      -14.1140363352  W2        3389            0.0000000000
     10167      3389  TIP3      H2              7.8782994280       -1.7788124159      -13.0490963352  W2        3389            0.0000000000
     10168      3390  TIP3      OH2             1.4988094280       -3.9393824159      -11.3866563352  W2        3390            0.0000000000
     10169      3390  TIP3      H1              1.6508494280       -4.2873424159      -10.5080063352  W2        3390            0.0000000000
     10170      3390  TIP3      H2              0.6478494280       -4.2956524159      -11.6419363352  W2        3390            0.0000000000
     10171      3391  TIP3      OH2            10.9470294280       -3.5740624159      -16.1653163352  W2        3391            0.0000000000
     10172      3391  TIP3      H1             11.3218694280       -4.3184524159      -16.6360563352  W2        3391            0.0000000000
     10173      3391  TIP3      H2             10.9513994280       -3.8440024159      -15.2469863352  W2        3391            0.0000000000
     10174      3392  TIP3      OH2            10.6158394280       -3.6483524159      -13.4160963352  W2        3392            0.0000000000
     10175      3392  TIP3      H1              9.6808194280       -3.5481624159      -13.2373963352  W2        3392            0.0000000000
     10176      3392  TIP3      H2             10.8960294280       -4.3577524159      -12.8377763352  W2        3392            0.0000000000
     10177      3393  TIP3      OH2            13.6044294280      -14.5811224159       -1.3695363352  W2        3393            0.0000000000
     10178      3393  TIP3      H1             13.1971094280      -14.1005624159       -2.0902063352  W2        3393            0.0000000000
     10179      3393  TIP3      H2             13.6449994280      -15.4865224159       -1.6774563352  W2        3393            0.0000000000
     10180      3394  TIP3      OH2             0.7533794280       -8.1971824159       -3.3728663352  W2        3394            0.0000000000
     10181      3394  TIP3      H1              0.9695094280       -8.5586224159       -2.5132863352  W2        3394            0.0000000000
     10182      3394  TIP3      H2             -0.1021505720       -8.5718024159       -3.5825163352  W2        3394            0.0000000000
     10183      3395  TIP3      OH2             3.3721794280      -19.7271324159       -7.3774463352  W2        3395            0.0000000000
     10184      3395  TIP3      H1              2.5105494280      -19.8143124159       -7.7851563352  W2        3395            0.0000000000
     10185      3395  TIP3      H2              3.3497494280      -18.8711224159       -6.9496863352  W2        3395            0.0000000000
     10186      3396  TIP3      OH2             8.0349594280      -20.0050924159       -4.0027463352  W2        3396            0.0000000000
     10187      3396  TIP3      H1              8.4552694280      -20.4203824159       -3.2496863352  W2        3396            0.0000000000
     10188      3396  TIP3      H2              7.1019194280      -20.1837624159       -3.8855463352  W2        3396            0.0000000000
     10189      3397  TIP3      OH2            11.3614494280      -16.2495724159       -3.1492963352  W2        3397            0.0000000000
     10190      3397  TIP3      H1             10.8473994280      -16.3753524159       -2.3516963352  W2        3397            0.0000000000
     10191      3397  TIP3      H2             11.2059194280      -15.3372624159       -3.3936763352  W2        3397            0.0000000000
     10192      3398  TIP3      OH2            12.1239394280      -11.3885724159      -17.3879963352  W2        3398            0.0000000000
     10193      3398  TIP3      H1             12.1660194280      -11.6111824159      -18.3179963352  W2        3398            0.0000000000
     10194      3398  TIP3      H2             12.9731494280      -10.9898624159      -17.1980063352  W2        3398            0.0000000000
     10195      3399  TIP3      OH2             7.6966894280      -17.5127524159      -16.7176663352  W2        3399            0.0000000000
     10196      3399  TIP3      H1              7.4431694280      -17.4935924159      -15.7948563352  W2        3399            0.0000000000
     10197      3399  TIP3      H2              7.4398994280      -18.3842124159      -17.0190463352  W2        3399            0.0000000000
     10198      3400  TIP3      OH2             3.4631894280      -14.7616824159       -6.2824263352  W2        3400            0.0000000000
     10199      3400  TIP3      H1              2.8213994280      -14.8019524159       -5.5734163352  W2        3400            0.0000000000
     10200      3400  TIP3      H2              3.5003894280      -13.8352124159       -6.5201263352  W2        3400            0.0000000000
     10201      3401  TIP3      OH2             3.4600994280      -14.5406724159      -11.3704263352  W2        3401            0.0000000000
     10202      3401  TIP3      H1              2.5673894280      -14.8810624159      -11.4290463352  W2        3401            0.0000000000
     10203      3401  TIP3      H2              3.9107594280      -14.9175824159      -12.1261063352  W2        3401            0.0000000000
     10204      3402  TIP3      OH2             8.9956494280      -14.1246424159      -12.5533463352  W2        3402            0.0000000000
     10205      3402  TIP3      H1              8.5866794280      -13.3097824159      -12.8448663352  W2        3402            0.0000000000
     10206      3402  TIP3      H2              9.7162694280      -14.2646324159      -13.1676363352  W2        3402            0.0000000000
     10207      3403  TIP3      OH2             8.0978094280      -13.9490024159       -1.0652763352  W2        3403            0.0000000000
     10208      3403  TIP3      H1              7.5351894280      -14.6538424159       -0.7444963352  W2        3403            0.0000000000
     10209      3403  TIP3      H2              8.9241494280      -14.0698124159       -0.5975163352  W2        3403            0.0000000000
     10210      3404  TIP3      OH2            10.0004194280      -14.6786024159       -9.7393763352  W2        3404            0.0000000000
     10211      3404  TIP3      H1              9.8048694280      -14.0729224159      -10.4543163352  W2        3404            0.0000000000
     10212      3404  TIP3      H2             10.1816794280      -15.5120824159      -10.1737463352  W2        3404            0.0000000000
     10213      3405  TIP3      OH2             1.2132394280      -14.4413324159       -4.4152263352  W2        3405            0.0000000000
     10214      3405  TIP3      H1              1.1751794280      -14.0411724159       -3.5465163352  W2        3405            0.0000000000
     10215      3405  TIP3      H2              0.7223494280      -15.2580924159       -4.3249363352  W2        3405            0.0000000000
     10216      3406  TIP3      OH2             4.5789794280      -17.0671024159      -17.6166263352  W2        3406            0.0000000000
     10217      3406  TIP3      H1              4.1480494280      -17.5120924159      -16.8868863352  W2        3406            0.0000000000
     10218      3406  TIP3      H2              3.8608494280      -16.6954724159      -18.1288763352  W2        3406            0.0000000000
     10219      3407  TIP3      OH2            -2.1786805720      -17.3251524159      -10.5647563352  W2        3407            0.0000000000
     10220      3407  TIP3      H1             -1.5479105720      -17.3539424159       -9.8453663352  W2        3407            0.0000000000
     10221      3407  TIP3      H2             -1.7292505720      -17.7502824159      -11.2951663352  W2        3407            0.0000000000
     10222      3408  TIP3      OH2            -0.9044705720      -16.5789524159      -15.1407163352  W2        3408            0.0000000000
     10223      3408  TIP3      H1             -0.4303005720      -15.9879624159      -15.7256263352  W2        3408            0.0000000000
     10224      3408  TIP3      H2             -1.6218305720      -16.0486624159      -14.7937063352  W2        3408            0.0000000000
     10225      3409  TIP3      OH2             9.2643394280      -13.0404724159       -5.0681363352  W2        3409            0.0000000000
     10226      3409  TIP3      H1              9.5878194280      -13.6715024159       -5.7110863352  W2        3409            0.0000000000
     10227      3409  TIP3      H2              8.8242694280      -13.5752524159       -4.4073963352  W2        3409            0.0000000000
     10228      3410  TIP3      OH2             6.0416294280      -17.1129224159      -10.2840163352  W2        3410            0.0000000000
     10229      3410  TIP3      H1              5.1307394280      -17.0562424159       -9.9954163352  W2        3410            0.0000000000
     10230      3410  TIP3      H2              6.5469194280      -17.1733724159       -9.4732963352  W2        3410            0.0000000000
     10231      3411  TIP3      OH2             0.8699694280      -15.4842924159      -11.4572563352  W2        3411            0.0000000000
     10232      3411  TIP3      H1             -0.0192305720      -15.3847424159      -11.7972963352  W2        3411            0.0000000000
     10233      3411  TIP3      H2              1.1664594280      -16.3259924159      -11.8034663352  W2        3411            0.0000000000
     10234      3412  TIP3      OH2             4.5231494280      -15.4840324159      -13.8007963352  W2        3412            0.0000000000
     10235      3412  TIP3      H1              5.4546994280      -15.3550324159      -13.6224863352  W2        3412            0.0000000000
     10236      3412  TIP3      H2              4.3081794280      -14.8146024159      -14.4503263352  W2        3412            0.0000000000
     10237      3413  TIP3      OH2            10.4468194280      -17.8782924159       -7.0198363352  W2        3413            0.0000000000
     10238      3413  TIP3      H1              9.7699794280      -17.7469824159       -6.3558663352  W2        3413            0.0000000000
     10239      3413  TIP3      H2              9.9613094280      -18.0333424159       -7.8300663352  W2        3413            0.0000000000
     10240      3414  TIP3      OH2             3.1971694280      -14.2898124159      -16.2341863352  W2        3414            0.0000000000
     10241      3414  TIP3      H1              2.6546794280      -14.6694324159      -16.9254263352  W2        3414            0.0000000000
     10242      3414  TIP3      H2              4.0306594280      -14.0953424159      -16.6627763352  W2        3414            0.0000000000
     10243      3415  TIP3      OH2            13.7343294280       -2.2067524159       -0.7430763352  W2        3415            0.0000000000
     10244      3415  TIP3      H1             13.9341994280       -1.7825624159       -1.5775463352  W2        3415            0.0000000000
     10245      3415  TIP3      H2             14.3896994280       -1.8629324159       -0.1360363352  W2        3415            0.0000000000
     10246      3416  TIP3      OH2             1.3323094280       -9.7326224159       -1.1350263352  W2        3416            0.0000000000
     10247      3416  TIP3      H1              2.0645494280       -9.4780324159       -0.5735763352  W2        3416            0.0000000000
     10248      3416  TIP3      H2              0.5521794280       -9.5280824159       -0.6194863352  W2        3416            0.0000000000
     10249      3417  TIP3      OH2             7.3615994280      -14.3256224159       -8.3970563352  W2        3417            0.0000000000
     10250      3417  TIP3      H1              7.9259394280      -14.8719624159       -8.9440963352  W2        3417            0.0000000000
     10251      3417  TIP3      H2              7.2139394280      -14.8474324159       -7.6082963352  W2        3417            0.0000000000
     10252      3418  TIP3      OH2             2.3635694280      -18.1890124159      -11.9785763352  W2        3418            0.0000000000
     10253      3418  TIP3      H1              2.0465194280      -19.0914824159      -12.0140363352  W2        3418            0.0000000000
     10254      3418  TIP3      H2              3.1449794280      -18.1872724159      -12.5314163352  W2        3418            0.0000000000
     10255      3419  TIP3      OH2             5.9881894280      -15.9370124159       -5.9830163352  W2        3419            0.0000000000
     10256      3419  TIP3      H1              5.1527194280      -15.4830624159       -5.8727763352  W2        3419            0.0000000000
     10257      3419  TIP3      H2              6.5122494280      -15.6611624159       -5.2310263352  W2        3419            0.0000000000
     10258      3420  TIP3      OH2             6.5324494280       -9.7242424159      -14.2983763352  W2        3420            0.0000000000
     10259      3420  TIP3      H1              5.7875494280      -10.2317124159      -14.6205863352  W2        3420            0.0000000000
     10260      3420  TIP3      H2              6.3981694280       -9.6754424159      -13.3518963352  W2        3420            0.0000000000
     10261      3421  TIP3      OH2            13.6823394280      -10.5914224159       -5.5116163352  W2        3421            0.0000000000
     10262      3421  TIP3      H1             14.3242194280      -10.1347924159       -6.0553963352  W2        3421            0.0000000000
     10263      3421  TIP3      H2             12.8520294280      -10.4781824159       -5.9742063352  W2        3421            0.0000000000
     10264      3422  TIP3      OH2            10.4301294280      -16.9102524159      -16.0991163352  W2        3422            0.0000000000
     10265      3422  TIP3      H1              9.4915494280      -16.7986924159      -16.2502363352  W2        3422            0.0000000000
     10266      3422  TIP3      H2             10.7273394280      -16.0535624159      -15.7925463352  W2        3422            0.0000000000
     10267      3423  TIP3      OH2             8.0516594280       -9.5399124159       -3.0614663352  W2        3423            0.0000000000
     10268      3423  TIP3      H1              7.7062694280       -9.9216724159       -2.2545063352  W2        3423            0.0000000000
     10269      3423  TIP3      H2              7.8516694280       -8.6065524159       -2.9901763352  W2        3423            0.0000000000
     10270      3424  TIP3      OH2            11.1484794280      -15.0429824159      -14.4383763352  W2        3424            0.0000000000
     10271      3424  TIP3      H1             12.0403794280      -15.1804824159      -14.1192563352  W2        3424            0.0000000000
     10272      3424  TIP3      H2             11.2048394280      -14.2523724159      -14.9750263352  W2        3424            0.0000000000
     10273      3425  TIP3      OH2             1.6572794280      -10.4292424159       -8.5285863352  W2        3425            0.0000000000
     10274      3425  TIP3      H1              2.4019994280      -10.4316724159       -9.1299363352  W2        3425            0.0000000000
     10275      3425  TIP3      H2              1.7349394280      -11.2528624159       -8.0470763352  W2        3425            0.0000000000
     10276      3426  TIP3      OH2             8.6578594280       -8.2658124159      -15.2729163352  W2        3426            0.0000000000
     10277      3426  TIP3      H1              8.3626994280       -7.4390224159      -14.8914363352  W2        3426            0.0000000000
     10278      3426  TIP3      H2              7.9548594280       -8.8851224159      -15.0767763352  W2        3426            0.0000000000
     10279      3427  TIP3      OH2            -1.3347505720      -11.9685524159       -3.2137363352  W2        3427            0.0000000000
     10280      3427  TIP3      H1             -1.1118905720      -12.3865924159       -2.3819863352  W2        3427            0.0000000000
     10281      3427  TIP3      H2             -1.9367405720      -12.5810524159       -3.6364563352  W2        3427            0.0000000000
     10282      3428  TIP3      OH2             5.6817394280      -12.4515624159       -1.0007663352  W2        3428            0.0000000000
     10283      3428  TIP3      H1              5.3858194280      -12.6172624159       -1.8958563352  W2        3428            0.0000000000
     10284      3428  TIP3      H2              6.6132594280      -12.6715324159       -1.0113763352  W2        3428            0.0000000000
     10285      3429  TIP3      OH2            10.3020194280       -7.0783624159       -3.1109663352  W2        3429            0.0000000000
     10286      3429  TIP3      H1              9.4014494280       -6.8951024159       -3.3785763352  W2        3429            0.0000000000
     10287      3429  TIP3      H2             10.3361294280       -6.8194324159       -2.1900863352  W2        3429            0.0000000000
     10288      3430  TIP3      OH2            16.0333494280      -14.8335724159      -14.7437063352  W2        3430            0.0000000000
     10289      3430  TIP3      H1             15.4789794280      -15.2297724159      -15.4159563352  W2        3430            0.0000000000
     10290      3430  TIP3      H2             16.1337094280      -13.9230524159      -15.0213763352  W2        3430            0.0000000000
     10291      3431  TIP3      OH2            15.9965494280       -9.0334024159       -1.9065563352  W2        3431            0.0000000000
     10292      3431  TIP3      H1             15.1453994280       -8.7950224159       -2.2739163352  W2        3431            0.0000000000
     10293      3431  TIP3      H2             16.5868894280       -9.0500824159       -2.6598463352  W2        3431            0.0000000000
     10294      3432  TIP3      OH2            14.3285194280       -6.0475324159      -14.2784963352  W2        3432            0.0000000000
     10295      3432  TIP3      H1             13.9556294280       -6.8731524159      -13.9694363352  W2        3432            0.0000000000
     10296      3432  TIP3      H2             14.6058694280       -6.2305924159      -15.1761563352  W2        3432            0.0000000000
     10297      3433  TIP3      OH2            11.4889094280      -11.2395824159       -7.2573063352  W2        3433            0.0000000000
     10298      3433  TIP3      H1             10.5605994280      -11.4713924159       -7.2843763352  W2        3433            0.0000000000
     10299      3433  TIP3      H2             11.9400194280      -12.0166024159       -7.5874263352  W2        3433            0.0000000000
     10300      3434  TIP3      OH2             4.0322194280       -6.9114224159      -11.1244363352  W2        3434            0.0000000000
     10301      3434  TIP3      H1              4.5594394280       -6.1379824159      -11.3245563352  W2        3434            0.0000000000
     10302      3434  TIP3      H2              3.1520694280       -6.6865024159      -11.4260363352  W2        3434            0.0000000000
     10303      3435  TIP3      OH2            -0.2130105720      -12.0490124159      -16.5371963352  W2        3435            0.0000000000
     10304      3435  TIP3      H1              0.4029794280      -11.4222924159      -16.1577163352  W2        3435            0.0000000000
     10305      3435  TIP3      H2             -1.0747505720      -11.7330324159      -16.2655463352  W2        3435            0.0000000000
     10306      3436  TIP3      OH2             5.4594494280       -9.2484324159      -11.5480063352  W2        3436            0.0000000000
     10307      3436  TIP3      H1              5.2184494280       -8.3229924159      -11.5064763352  W2        3436            0.0000000000
     10308      3436  TIP3      H2              4.7188094280       -9.7073024159      -11.1516163352  W2        3436            0.0000000000
     10309      3437  TIP3      OH2             5.9741094280       -5.0990724159       -5.2328963352  W2        3437            0.0000000000
     10310      3437  TIP3      H1              6.3365794280       -4.2445124159       -5.4664563352  W2        3437            0.0000000000
     10311      3437  TIP3      H2              6.5056294280       -5.3909124159       -4.4922663352  W2        3437            0.0000000000
     10312      3438  TIP3      OH2             4.1425294280       -4.2266724159      -12.0027863352  W2        3438            0.0000000000
     10313      3438  TIP3      H1              3.1925794280       -4.1209324159      -11.9514563352  W2        3438            0.0000000000
     10314      3438  TIP3      H2              4.4943394280       -3.4059324159      -11.6580363352  W2        3438            0.0000000000
     10315      3439  TIP3      OH2             9.5181894280       -9.0000024159       -5.5323363352  W2        3439            0.0000000000
     10316      3439  TIP3      H1              9.0923194280       -9.2278324159       -4.7059363352  W2        3439            0.0000000000
     10317      3439  TIP3      H2             10.0987694280       -9.7388224159       -5.7148063352  W2        3439            0.0000000000
     10318      3440  TIP3      OH2            11.7210794280       -8.0709524159      -16.4584363352  W2        3440            0.0000000000
     10319      3440  TIP3      H1             12.0743894280       -8.4509724159      -15.6540863352  W2        3440            0.0000000000
     10320      3440  TIP3      H2             10.7724294280       -8.1644724159      -16.3715063352  W2        3440            0.0000000000
     10321      3441  TIP3      OH2            12.1766094280       -4.4480524159       -3.0628563352  W2        3441            0.0000000000
     10322      3441  TIP3      H1             11.5749294280       -5.0037624159       -3.5582263352  W2        3441            0.0000000000
     10323      3441  TIP3      H2             12.4579794280       -3.7810724159       -3.6891163352  W2        3441            0.0000000000
     10324      3442  TIP3      OH2            16.2245194280       -3.5917024159      -16.2574163352  W2        3442            0.0000000000
     10325      3442  TIP3      H1             16.9683094280       -3.0056524159      -16.3972563352  W2        3442            0.0000000000
     10326      3442  TIP3      H2             15.5303294280       -3.0231224159      -15.9241763352  W2        3442            0.0000000000
     10327      3443  TIP3      OH2             0.2991994280      -17.2152824159       -3.6555963352  W2        3443            0.0000000000
     10328      3443  TIP3      H1             -0.5935705720      -16.8767424159       -3.7231963352  W2        3443            0.0000000000
     10329      3443  TIP3      H2              0.2004794280      -18.0706724159       -3.2375163352  W2        3443            0.0000000000
     10330      3444  TIP3      OH2            12.5870094280       -9.3987524159      -14.2316463352  W2        3444            0.0000000000
     10331      3444  TIP3      H1             12.3097694280      -10.1268224159      -13.6755363352  W2        3444            0.0000000000
     10332      3444  TIP3      H2             13.5143094280       -9.2795524159      -14.0263863352  W2        3444            0.0000000000
     10333      3445  TIP3      OH2            -0.0496005720       -5.4108424159       -5.2206563352  W2        3445            0.0000000000
     10334      3445  TIP3      H1              0.1674294280       -6.3426024159       -5.2516863352  W2        3445            0.0000000000
     10335      3445  TIP3      H2              0.1967494280       -5.1363424159       -4.3373763352  W2        3445            0.0000000000
     10336      3446  TIP3      OH2             5.8118594280       -6.9593424159      -18.0114363352  W2        3446            0.0000000000
     10337      3446  TIP3      H1              6.0508394280       -7.7075324159      -18.5585463352  W2        3446            0.0000000000
     10338      3446  TIP3      H2              5.5429894280       -7.3471724159      -17.1786563352  W2        3446            0.0000000000
     10339      3447  TIP3      OH2             4.7489194280       -7.3889624159      -15.5551763352  W2        3447            0.0000000000
     10340      3447  TIP3      H1              4.8957194280       -7.9089824159      -14.7650863352  W2        3447            0.0000000000
     10341      3447  TIP3      H2              4.7460894280       -6.4822024159      -15.2485863352  W2        3447            0.0000000000
     10342      3448  TIP3      OH2             1.2020294280      -10.1366324159      -15.0446363352  W2        3448            0.0000000000
     10343      3448  TIP3      H1              0.5159594280       -9.7843824159      -14.4776663352  W2        3448            0.0000000000
     10344      3448  TIP3      H2              1.7248194280       -9.3736724159      -15.2912063352  W2        3448            0.0000000000
     10345      3449  TIP3      OH2             9.0335394280      -17.4742524159       -4.7657363352  W2        3449            0.0000000000
     10346      3449  TIP3      H1              9.7323294280      -17.4003824159       -4.1157663352  W2        3449            0.0000000000
     10347      3449  TIP3      H2              8.6526794280      -18.3387524159       -4.6114463352  W2        3449            0.0000000000
     10348      3450  TIP3      OH2             9.8180294280      -17.8220824159      -13.6685063352  W2        3450            0.0000000000
     10349      3450  TIP3      H1             10.0378594280      -17.3505424159      -14.4719663352  W2        3450            0.0000000000
     10350      3450  TIP3      H2             10.3764294280      -17.4278224159      -12.9984463352  W2        3450            0.0000000000
     10351      3451  TIP3      OH2             7.4866394280       -5.6916024159      -14.8057563352  W2        3451            0.0000000000
     10352      3451  TIP3      H1              6.6702494280       -5.1946324159      -14.7533263352  W2        3451            0.0000000000
     10353      3451  TIP3      H2              8.0162694280       -5.2162524159      -15.4458763352  W2        3451            0.0000000000
     10354      3452  TIP3      OH2             7.0180194280      -16.0942024159      -12.8336663352  W2        3452            0.0000000000
     10355      3452  TIP3      H1              7.8302794280      -15.5898824159      -12.7874963352  W2        3452            0.0000000000
     10356      3452  TIP3      H2              6.7733194280      -16.2392324159      -11.9197063352  W2        3452            0.0000000000
     10357      3453  TIP3      OH2             7.5536594280      -15.1079324159       -3.6490063352  W2        3453            0.0000000000
     10358      3453  TIP3      H1              7.6726894280      -14.5343924159       -2.8919663352  W2        3453            0.0000000000
     10359      3453  TIP3      H2              8.2091194280      -15.7959924159       -3.5342263352  W2        3453            0.0000000000
     10360      3454  TIP3      OH2             7.9016894280      -19.0129024159      -11.8955563352  W2        3454            0.0000000000
     10361      3454  TIP3      H1              7.5550394280      -18.3958424159      -11.2511263352  W2        3454            0.0000000000
     10362      3454  TIP3      H2              8.5603794280      -18.5123324159      -12.3770063352  W2        3454            0.0000000000
     10363      3455  TIP3      OH2             4.8249494280       -4.6478824159      -14.8240663352  W2        3455            0.0000000000
     10364      3455  TIP3      H1              4.9858194280       -3.8481324159      -15.3248063352  W2        3455            0.0000000000
     10365      3455  TIP3      H2              4.6277294280       -4.3412824159      -13.9390063352  W2        3455            0.0000000000
     10366      3456  TIP3      OH2             3.5593894280      -17.9499624159      -15.2083063352  W2        3456            0.0000000000
     10367      3456  TIP3      H1              3.4758694280      -17.0616524159      -14.8616663352  W2        3456            0.0000000000
     10368      3456  TIP3      H2              4.4494194280      -18.2152924159      -14.9766263352  W2        3456            0.0000000000
     10369      3457  TIP3      OH2            13.7582394280      -17.2009024159       -2.8140363352  W2        3457            0.0000000000
     10370      3457  TIP3      H1             12.8418194280      -16.9387324159       -2.9016663352  W2        3457            0.0000000000
     10371      3457  TIP3      H2             14.0937394280      -17.2040024159       -3.7105063352  W2        3457            0.0000000000
     10372      3458  TIP3      OH2            12.3603394280      -13.4508024159       -8.7183063352  W2        3458            0.0000000000
     10373      3458  TIP3      H1             11.5627794280      -13.8657824159       -9.0468063352  W2        3458            0.0000000000
     10374      3458  TIP3      H2             12.8054494280      -14.1414324159       -8.2272563352  W2        3458            0.0000000000
     10375      3459  TIP3      OH2             1.8179194280       -7.5227424159      -16.1478563352  W2        3459            0.0000000000
     10376      3459  TIP3      H1              2.4100694280       -6.8232624159      -15.8716163352  W2        3459            0.0000000000
     10377      3459  TIP3      H2              2.2772194280       -7.9557924159      -16.8673963352  W2        3459            0.0000000000
     10378      3460  TIP3      OH2             0.1338394280      -14.8584424159      -17.0319163352  W2        3460            0.0000000000
     10379      3460  TIP3      H1              0.0890994280      -13.9191324159      -16.8532163352  W2        3460            0.0000000000
     10380      3460  TIP3      H2             -0.7538405720      -15.0939524159      -17.3017063352  W2        3460            0.0000000000
     10381      3461  TIP3      OH2            13.4467994280       -4.1945524159       -7.0959563352  W2        3461            0.0000000000
     10382      3461  TIP3      H1             13.2912294280       -3.5161124159       -7.7530263352  W2        3461            0.0000000000
     10383      3461  TIP3      H2             14.3794394280       -4.1226224159       -6.8928963352  W2        3461            0.0000000000
     10384      3462  TIP3      OH2             0.9420394280      -20.0767824159       -8.3588163352  W2        3462            0.0000000000
     10385      3462  TIP3      H1              0.7130194280      -20.0175324159       -9.2863163352  W2        3462            0.0000000000
     10386      3462  TIP3      H2              0.4993794280      -20.8682324159       -8.0524063352  W2        3462            0.0000000000
     10387      3463  TIP3      OH2            -0.1276305720       -6.1360724159      -12.1982363352  W2        3463            0.0000000000
     10388      3463  TIP3      H1             -0.9597705720       -5.6638024159      -12.1710963352  W2        3463            0.0000000000
     10389      3463  TIP3      H2              0.4181994280       -5.6263124159      -12.7969263352  W2        3463            0.0000000000
     10390      3464  TIP3      OH2            -0.8392605720       -3.5237024159       -0.8684363352  W2        3464            0.0000000000
     10391      3464  TIP3      H1             -0.2990405720       -3.7403024159       -0.1085163352  W2        3464            0.0000000000
     10392      3464  TIP3      H2             -1.3204605720       -4.3291024159       -1.0581863352  W2        3464            0.0000000000
     10393      3465  TIP3      OH2             3.7580794280       -4.6042624159        0.7519836648  W2        3465            0.0000000000
     10394      3465  TIP3      H1              4.5257994280       -5.0631824159        1.0929036648  W2        3465            0.0000000000
     10395      3465  TIP3      H2              3.7366994280       -4.8302824159       -0.1778963352  W2        3465            0.0000000000
     10396      3466  TIP3      OH2             7.8500394280       -5.0962024159      -17.8728363352  W2        3466            0.0000000000
     10397      3466  TIP3      H1              7.2061394280       -5.7273424159      -17.5514663352  W2        3466            0.0000000000
     10398      3466  TIP3      H2              8.6118694280       -5.6274024159      -18.1044863352  W2        3466            0.0000000000
     10399      3467  TIP3      OH2            10.3349494280       -6.2241524159       -0.5188663352  W2        3467            0.0000000000
     10400      3467  TIP3      H1              9.9838994280       -7.0808524159       -0.2758263352  W2        3467            0.0000000000
     10401      3467  TIP3      H2             11.0612694280       -6.0814824159        0.0880336648  W2        3467            0.0000000000
     10402      3468  TIP3      OH2            12.4543294280       -5.2792124159      -17.6390363352  W2        3468            0.0000000000
     10403      3468  TIP3      H1             12.7373694280       -6.0736924159      -17.1863463352  W2        3468            0.0000000000
     10404      3468  TIP3      H2             13.1941194280       -5.0461124159      -18.1999263352  W2        3468            0.0000000000
     10405      3469  TIP3      OH2            -0.9323105720       -9.7132924159        0.0859936648  W2        3469            0.0000000000
     10406      3469  TIP3      H1             -0.7882605720      -10.6152224159       -0.2003363352  W2        3469            0.0000000000
     10407      3469  TIP3      H2             -1.7045705720       -9.4270824159       -0.4017763352  W2        3469            0.0000000000
     10408      3470  TIP3      OH2             3.4090594280       -9.3697224159      -17.7815463352  W2        3470            0.0000000000
     10409      3470  TIP3      H1              3.4734694280      -10.1637624159      -17.2509063352  W2        3470            0.0000000000
     10410      3470  TIP3      H2              4.0619794280       -9.4884424159      -18.4713463352  W2        3470            0.0000000000
     10411      3471  TIP3      OH2             5.7232994280       -9.7434824159       -0.4813663352  W2        3471            0.0000000000
     10412      3471  TIP3      H1              5.3946794280       -9.4726724159       -1.3386263352  W2        3471            0.0000000000
     10413      3471  TIP3      H2              5.8751194280      -10.6845024159       -0.5688663352  W2        3471            0.0000000000
     10414      3472  TIP3      OH2             8.7613994280       -8.3225524159      -18.0457463352  W2        3472            0.0000000000
     10415      3472  TIP3      H1              8.4928094280       -8.1423424159      -17.1448563352  W2        3472            0.0000000000
     10416      3472  TIP3      H2              8.5549594280       -9.2479324159      -18.1771663352  W2        3472            0.0000000000
     10417      3473  TIP3      OH2            11.4578194280       -9.8277524159       -3.0981363352  W2        3473            0.0000000000
     10418      3473  TIP3      H1             12.2032994280       -9.2393824159       -3.2177363352  W2        3473            0.0000000000
     10419      3473  TIP3      H2             10.7004994280       -9.2457824159       -3.0348263352  W2        3473            0.0000000000
     10420      3474  TIP3      OH2            -0.0996605720      -12.5129624159       -0.4940763352  W2        3474            0.0000000000
     10421      3474  TIP3      H1              0.3084594280      -13.3703024159       -0.6150163352  W2        3474            0.0000000000
     10422      3474  TIP3      H2             -0.3599005720      -12.4988324159        0.4269536648  W2        3474            0.0000000000
     10423      3475  TIP3      OH2             4.5584394280      -11.3971024159      -15.4757463352  W2        3475            0.0000000000
     10424      3475  TIP3      H1              4.0986394280      -11.8812724159      -14.7898963352  W2        3475            0.0000000000
     10425      3475  TIP3      H2              4.8133094280      -12.0655624159      -16.1116963352  W2        3475            0.0000000000
     10426      3476  TIP3      OH2             3.8473694280      -13.5043924159       -3.1197863352  W2        3476            0.0000000000
     10427      3476  TIP3      H1              3.2289794280      -12.8297324159       -2.8393163352  W2        3476            0.0000000000
     10428      3476  TIP3      H2              4.1914894280      -13.1830024159       -3.9531663352  W2        3476            0.0000000000
     10429      3477  TIP3      OH2             5.6294794280      -13.1539224159      -17.2134263352  W2        3477            0.0000000000
     10430      3477  TIP3      H1              5.4489794280      -13.3088024159      -18.1405963352  W2        3477            0.0000000000
     10431      3477  TIP3      H2              6.5795294280      -13.0460524159      -17.1686363352  W2        3477            0.0000000000
     10432      3478  TIP3      OH2             8.8671894280      -11.0328624159        0.1576936648  W2        3478            0.0000000000
     10433      3478  TIP3      H1              9.8203094280      -10.9489524159        0.1302936648  W2        3478            0.0000000000
     10434      3478  TIP3      H2              8.7066494280      -11.7446824159        0.7771836648  W2        3478            0.0000000000
     10435      3479  TIP3      OH2            15.0193094280      -10.7995024159      -17.7676163352  W2        3479            0.0000000000
     10436      3479  TIP3      H1             14.7457894280      -11.2239524159      -18.5807863352  W2        3479            0.0000000000
     10437      3479  TIP3      H2             15.0587194280       -9.8680524159      -17.9845763352  W2        3479            0.0000000000
     10438      3480  TIP3      OH2             4.1867394280      -16.1493124159       -2.0374763352  W2        3480            0.0000000000
     10439      3480  TIP3      H1              4.3368294280      -16.8781824159       -2.6395063352  W2        3480            0.0000000000
     10440      3480  TIP3      H2              4.1889794280      -15.3721424159       -2.5962563352  W2        3480            0.0000000000
     10441      3481  TIP3      OH2             4.5993094280      -17.7797324159       -4.5447363352  W2        3481            0.0000000000
     10442      3481  TIP3      H1              5.1350594280      -17.3280624159       -5.1968063352  W2        3481            0.0000000000
     10443      3481  TIP3      H2              3.7472694280      -17.8877524159       -4.9673263352  W2        3481            0.0000000000
     10444      3482  TIP3      OH2             6.1811494280      -12.3401124159       -4.3052163352  W2        3482            0.0000000000
     10445      3482  TIP3      H1              6.9316294280      -12.4963624159       -4.8784363352  W2        3482            0.0000000000
     10446      3482  TIP3      H2              5.8419794280      -11.4884524159       -4.5806663352  W2        3482            0.0000000000
     10447      3483  TIP3      OH2            10.5967694280      -14.5249324159        0.7233136648  W2        3483            0.0000000000
     10448      3483  TIP3      H1             10.7888994280      -15.4559924159        0.6117636648  W2        3483            0.0000000000
     10449      3483  TIP3      H2             11.4543994280      -14.0999824159        0.7128536648  W2        3483            0.0000000000
     10450      3484  TIP3      OH2            11.9134894280      -11.7364124159       -1.1994163352  W2        3484            0.0000000000
     10451      3484  TIP3      H1             11.6319894280      -11.0269524159       -1.7770363352  W2        3484            0.0000000000
     10452      3484  TIP3      H2             12.8559194280      -11.8091124159       -1.3502963352  W2        3484            0.0000000000
     10453      3485  TIP3      OH2             2.6653694280      -14.9509624159       -0.1259163352  W2        3485            0.0000000000
     10454      3485  TIP3      H1              1.8982694280      -15.4834824159       -0.3361563352  W2        3485            0.0000000000
     10455      3485  TIP3      H2              3.3442694280      -15.2609224159       -0.7252863352  W2        3485            0.0000000000
     10456      3486  TIP3      OH2             5.4048594280      -20.3231624159       -4.1133763352  W2        3486            0.0000000000
     10457      3486  TIP3      H1              5.3068194280      -19.3768424159       -4.2187563352  W2        3486            0.0000000000
     10458      3486  TIP3      H2              4.6624794280      -20.6957824159       -4.5890263352  W2        3486            0.0000000000
     10459      3487  TIP3      OH2             6.6689094280      -16.0016224159       -0.5495363352  W2        3487            0.0000000000
     10460      3487  TIP3      H1              6.4334494280      -16.2209524159        0.3519536648  W2        3487            0.0000000000
     10461      3487  TIP3      H2              5.8855994280      -16.2085024159       -1.0592863352  W2        3487            0.0000000000
     10462      3488  TIP3      OH2             9.3845694280      -16.8742724159       -1.4741863352  W2        3488            0.0000000000
     10463      3488  TIP3      H1              8.4371094280      -16.8423024159       -1.3418563352  W2        3488            0.0000000000
     10464      3488  TIP3      H2              9.6972394280      -17.4995624159       -0.8203663352  W2        3488            0.0000000000
     10465      3489  TIP3      OH2            11.0187194280      -18.2401624159        0.5310036648  W2        3489            0.0000000000
     10466      3489  TIP3      H1             10.9218994280      -19.1924324159        0.5251936648  W2        3489            0.0000000000
     10467      3489  TIP3      H2             10.6970294280      -17.9714824159        1.3915536648  W2        3489            0.0000000000
     10468      3490  TIP3      OH2             0.8456494280      -17.0305824159       -0.4214463352  W2        3490            0.0000000000
     10469      3490  TIP3      H1              1.0573894280      -17.7369724159       -1.0316963352  W2        3490            0.0000000000
     10470      3490  TIP3      H2              0.7343994280      -17.4679824159        0.4226736648  W2        3490            0.0000000000
     10471      3491  TIP3      OH2             5.6266694280      -21.0294224159       -1.4420963352  W2        3491            0.0000000000
     10472      3491  TIP3      H1              6.3385094280      -21.6692024159       -1.4561863352  W2        3491            0.0000000000
     10473      3491  TIP3      H2              5.5257094280      -20.7625924159       -2.3557863352  W2        3491            0.0000000000
     10474      3492  TIP3      OH2             5.9804194280      -19.3465824159        0.6115336648  W2        3492            0.0000000000
     10475      3492  TIP3      H1              5.8486394280      -19.8222024159       -0.2086163352  W2        3492            0.0000000000
     10476      3492  TIP3      H2              5.3811594280      -18.6022224159        0.5562436648  W2        3492            0.0000000000
     10477      3493  TIP3      OH2             5.5266494280       -2.4635524159      -16.2120663352  W2        3493            0.0000000000
     10478      3493  TIP3      H1              6.4597194280       -2.3056824159      -16.0682263352  W2        3493            0.0000000000
     10479      3493  TIP3      H2              5.2625294280       -1.7882524159      -16.8369163352  W2        3493            0.0000000000
     10480      3494  TIP3      OH2            -0.9048605720       -7.8271724159      -16.7292563352  W2        3494            0.0000000000
     10481      3494  TIP3      H1              0.0090594280       -7.7482824159      -16.4558663352  W2        3494            0.0000000000
     10482      3494  TIP3      H2             -0.8975505720       -8.5142124159      -17.3956963352  W2        3494            0.0000000000
     10483      3495  TIP3      OH2            -2.2558005720       -2.4343224159      -11.6518663352  W2        3495            0.0000000000
     10484      3495  TIP3      H1             -2.9030905720       -2.8961524159      -12.1847463352  W2        3495            0.0000000000
     10485      3495  TIP3      H2             -1.9013405720       -3.1059924159      -11.0692463352  W2        3495            0.0000000000
     10486      3496  TIP3      OH2            -1.3858805720       -4.3536224159       -9.8472463352  W2        3496            0.0000000000
     10487      3496  TIP3      H1             -1.7202005720       -5.2338924159       -9.6752263352  W2        3496            0.0000000000
     10488      3496  TIP3      H2             -1.1636405720       -4.0081224159       -8.9826863352  W2        3496            0.0000000000
     10489      3497  TIP3      OH2            16.1625994280       -3.5439824159       -6.8667663352  W2        3497            0.0000000000
     10490      3497  TIP3      H1             16.1412694280       -3.3591424159       -5.9278263352  W2        3497            0.0000000000
     10491      3497  TIP3      H2             16.8532194280       -2.9755824159       -7.2076263352  W2        3497            0.0000000000
     10492      3498  TIP3      OH2            15.7258894280       -3.9768724159       -3.9448563352  W2        3498            0.0000000000
     10493      3498  TIP3      H1             15.2387594280       -4.7124624159       -4.3161163352  W2        3498            0.0000000000
     10494      3498  TIP3      H2             16.2751594280       -4.3704824159       -3.2669163352  W2        3498            0.0000000000
     10495      3499  TIP3      OH2            14.1766194280       -8.1870624159        0.6931736648  W2        3499            0.0000000000
     10496      3499  TIP3      H1             13.3107294280       -8.2920924159        1.0874036648  W2        3499            0.0000000000
     10497      3499  TIP3      H2             14.5532094280       -7.4287324159        1.1396436648  W2        3499            0.0000000000
     10498      3500  TIP3      OH2            15.4775894280       -9.9306924159      -13.7925763352  W2        3500            0.0000000000
     10499      3500  TIP3      H1             16.3277294280       -9.5096024159      -13.6654163352  W2        3500            0.0000000000
     10500      3500  TIP3      H2             15.4830994280      -10.6706824159      -13.1854363352  W2        3500            0.0000000000
     10501      3501  TIP3      OH2            15.8721494280      -11.8769524159      -11.9690063352  W2        3501            0.0000000000
     10502      3501  TIP3      H1             15.1456094280      -12.3566924159      -11.5712463352  W2        3501            0.0000000000
     10503      3501  TIP3      H2             16.4534794280      -11.6714824159      -11.2368463352  W2        3501            0.0000000000
     10504      3502  TIP3      OH2            15.6312694280       -9.0922024159       -7.0212463352  W2        3502            0.0000000000
     10505      3502  TIP3      H1             16.4646894280       -9.4702024159       -7.3018863352  W2        3502            0.0000000000
     10506      3502  TIP3      H2             15.7432994280       -8.1490824159       -7.1403363352  W2        3502            0.0000000000
     10507      3503  TIP3      OH2            14.1174994280       -6.2144524159       -4.7144063352  W2        3503            0.0000000000
     10508      3503  TIP3      H1             13.4700294280       -5.8893024159       -4.0888863352  W2        3503            0.0000000000
     10509      3503  TIP3      H2             13.5998994280       -6.6546824159       -5.3885763352  W2        3503            0.0000000000
     10510      3504  TIP3      OH2            16.1404594280      -11.9761024159      -15.5778763352  W2        3504            0.0000000000
     10511      3504  TIP3      H1             15.6185694280      -11.6196924159      -16.2967863352  W2        3504            0.0000000000
     10512      3504  TIP3      H2             16.1073794280      -11.3013224159      -14.8997863352  W2        3504            0.0000000000
     10513      3505  TIP3      OH2            14.4893594280      -14.7365424159      -17.0271663352  W2        3505            0.0000000000
     10514      3505  TIP3      H1             14.5857994280      -14.0698424159      -17.7071963352  W2        3505            0.0000000000
     10515      3505  TIP3      H2             14.3493194280      -15.5519124159      -17.5086163352  W2        3505            0.0000000000
     10516      3506  TIP3      OH2            13.6588294280      -13.3563024159      -11.4061363352  W2        3506            0.0000000000
     10517      3506  TIP3      H1             13.5087094280      -14.3014424159      -11.4263563352  W2        3506            0.0000000000
     10518      3506  TIP3      H2             13.3052794280      -13.0751624159      -10.5622263352  W2        3506            0.0000000000
     10519      3507  TIP3      OH2            -1.3059305720      -11.2780824159       -7.3957563352  W2        3507            0.0000000000
     10520      3507  TIP3      H1             -1.1216405720      -11.3599124159       -8.3314663352  W2        3507            0.0000000000
     10521      3507  TIP3      H2             -0.4566405720      -11.4023824159       -6.9721163352  W2        3507            0.0000000000
     10522      3508  TIP3      OH2            14.5151194280      -11.3859724159       -1.7673063352  W2        3508            0.0000000000
     10523      3508  TIP3      H1             15.0978494280      -12.1207424159       -1.5755863352  W2        3508            0.0000000000
     10524      3508  TIP3      H2             15.0790494280      -10.6139424159       -1.7207263352  W2        3508            0.0000000000
     10525      3509  TIP3      OH2            16.0118294280      -13.4833924159       -1.0827663352  W2        3509            0.0000000000
     10526      3509  TIP3      H1             15.1484994280      -13.8621824159       -1.2482963352  W2        3509            0.0000000000
     10527      3509  TIP3      H2             16.6161994280      -14.2219124159       -1.1571863352  W2        3509            0.0000000000
     10528      3510  TIP3      OH2            13.7367394280      -17.3285624159      -17.9096163352  W2        3510            0.0000000000
     10529      3510  TIP3      H1             14.3473194280      -17.6998824159      -17.2727963352  W2        3510            0.0000000000
     10530      3510  TIP3      H2             12.8998894280      -17.7498724159      -17.7136163352  W2        3510            0.0000000000
     10531      3511  TIP3      OH2            13.3693094280      -15.7737224159      -12.9436263352  W2        3511            0.0000000000
     10532      3511  TIP3      H1             13.6490194280      -16.6806824159      -12.8194563352  W2        3511            0.0000000000
     10533      3511  TIP3      H2             14.1284794280      -15.3395724159      -13.3327063352  W2        3511            0.0000000000
     10534      3512  TIP3      OH2            13.9811394280      -15.1919824159       -7.5077363352  W2        3512            0.0000000000
     10535      3512  TIP3      H1             14.9139394280      -14.9799924159       -7.5421363352  W2        3512            0.0000000000
     10536      3512  TIP3      H2             13.7458894280      -15.0907724159       -6.5854363352  W2        3512            0.0000000000
     10537      3513  TIP3      OH2            14.0103294280      -14.4554524159       -4.7317963352  W2        3513            0.0000000000
     10538      3513  TIP3      H1             13.1674594280      -14.1874124159       -4.3658163352  W2        3513            0.0000000000
     10539      3513  TIP3      H2             14.4527594280      -13.6332624159       -4.9426863352  W2        3513            0.0000000000
     10540      3514  TIP3      OH2            -1.7084505720      -16.0075824159       -1.2548763352  W2        3514            0.0000000000
     10541      3514  TIP3      H1             -0.7889605720      -16.1297524159       -1.0185663352  W2        3514            0.0000000000
     10542      3514  TIP3      H2             -2.1580005720      -16.7576124159       -0.8655263352  W2        3514            0.0000000000
     10543      3515  TIP3      OH2            16.2934894280      -20.4754324159        0.6217036648  W2        3515            0.0000000000
     10544      3515  TIP3      H1             16.6431894280      -21.1290824159        0.0161736648  W2        3515            0.0000000000
     10545      3515  TIP3      H2             16.4404394280      -19.6380224159        0.1819636648  W2        3515            0.0000000000
     10546      3516  TIP3      OH2            13.9827894280      -18.5107924159      -12.8954263352  W2        3516            0.0000000000
     10547      3516  TIP3      H1             14.1652894280      -18.9596424159      -12.0699263352  W2        3516            0.0000000000
     10548      3516  TIP3      H2             13.3830794280      -19.0953524159      -13.3589663352  W2        3516            0.0000000000
     10549      3517  TIP3      OH2            -0.4872005720      -17.6954224159       -8.3635863352  W2        3517            0.0000000000
     10550      3517  TIP3      H1             -0.0420405720      -18.4871724159       -8.0616163352  W2        3517            0.0000000000
     10551      3517  TIP3      H2             -0.0209005720      -16.9789024159       -7.9330263352  W2        3517            0.0000000000
     10552      3518  TIP3      OH2            -2.1831705720      -14.6961224159       -7.2945663352  W2        3518            0.0000000000
     10553      3518  TIP3      H1             -1.6911905720      -14.9170724159       -8.0853663352  W2        3518            0.0000000000
     10554      3518  TIP3      H2             -1.8210805720      -13.8557824159       -7.0136163352  W2        3518            0.0000000000
     10555      3519  TIP3      OH2            15.8132094280      -18.3659724159       -1.0291663352  W2        3519            0.0000000000
     10556      3519  TIP3      H1             14.8957794280      -18.0952624159       -1.0648163352  W2        3519            0.0000000000
     10557      3519  TIP3      H2             15.9361494280      -18.9011324159       -1.8131963352  W2        3519            0.0000000000
     10558      3520  TIP3      OH2            15.8494094280      -18.4429824159      -16.3673963352  W2        3520            0.0000000000
     10559      3520  TIP3      H1             16.2616694280      -19.1644124159      -16.8425963352  W2        3520            0.0000000000
     10560      3520  TIP3      H2             16.5310594280      -17.7735224159      -16.3089663352  W2        3520            0.0000000000
     10561      3521  TIP3      OH2            -1.8695205720      -18.4382124159      -13.2403263352  W2        3521            0.0000000000
     10562      3521  TIP3      H1             -2.7946805720      -18.2295524159      -13.3697763352  W2        3521            0.0000000000
     10563      3521  TIP3      H2             -1.4155305720      -17.9541324159      -13.9300963352  W2        3521            0.0000000000
     10564      3522  TIP3      OH2            12.9011994280       -3.4540424159      -11.2945863352  W2        3522            0.0000000000
     10565      3522  TIP3      H1             13.5534894280       -3.8018324159      -11.9026763352  W2        3522            0.0000000000
     10566      3522  TIP3      H2             13.4115794280       -2.9657224159      -10.6486163352  W2        3522            0.0000000000
     10567      3523  TIP3      OH2            -1.9059805720      -19.7003124159       -4.8960763352  W2        3523            0.0000000000
     10568      3523  TIP3      H1             -2.5709305720      -19.9462824159       -4.2529863352  W2        3523            0.0000000000
     10569      3523  TIP3      H2             -2.3488505720      -19.0782724159       -5.4732763352  W2        3523            0.0000000000
     10570      3524  TIP3      OH2             0.2859494280       -6.5249024159       -0.7514963352  W2        3524            0.0000000000
     10571      3524  TIP3      H1             -0.5348005720       -6.3502524159       -1.2120263352  W2        3524            0.0000000000
     10572      3524  TIP3      H2              0.0337294280       -6.5984324159        0.1689436648  W2        3524            0.0000000000
     10573      3525  TIP3      OH2             3.2402394280       -5.5507824159       -4.4930963352  W2        3525            0.0000000000
     10574      3525  TIP3      H1              2.8153494280       -4.7409324159       -4.7756363352  W2        3525            0.0000000000
     10575      3525  TIP3      H2              4.1445194280       -5.4653724159       -4.7951163352  W2        3525            0.0000000000
     10576      3526  TIP3      OH2             7.5513794280       -4.1517824159       -1.5337263352  W2        3526            0.0000000000
     10577      3526  TIP3      H1              7.7361294280       -4.4851724159       -0.6556963352  W2        3526            0.0000000000
     10578      3526  TIP3      H2              8.3978294280       -3.8419224159       -1.8558063352  W2        3526            0.0000000000
     10579      3527  TIP3      OH2             9.8964194280       -2.8658924159       -2.2895863352  W2        3527            0.0000000000
     10580      3527  TIP3      H1             10.5733094280       -3.4986624159       -2.5296663352  W2        3527            0.0000000000
     10581      3527  TIP3      H2             10.2182994280       -2.4648424159       -1.4822563352  W2        3527            0.0000000000
     10582      3528  TIP3      OH2            14.8137994280      -20.2763424159       -3.2100863352  W2        3528            0.0000000000
     10583      3528  TIP3      H1             14.0011494280      -19.9513124159       -3.5976163352  W2        3528            0.0000000000
     10584      3528  TIP3      H2             15.0466494280      -21.0364924159       -3.7431763352  W2        3528            0.0000000000
     10585      3529  TIP3      OH2             0.6419094280       -2.2943924159       -4.4455663352  W2        3529            0.0000000000
     10586      3529  TIP3      H1             -0.0784505720       -1.8542924159       -4.8967963352  W2        3529            0.0000000000
     10587      3529  TIP3      H2              0.2763094280       -2.5449224159       -3.5971663352  W2        3529            0.0000000000
     10588      3530  TIP3      OH2             3.1091694280       -2.6940024159       -5.4158463352  W2        3530            0.0000000000
     10589      3530  TIP3      H1              2.2443894280       -2.6221524159       -5.0118363352  W2        3530            0.0000000000
     10590      3530  TIP3      H2              3.0540694280       -2.1472724159       -6.1995963352  W2        3530            0.0000000000
     10591      3531  TIP3      OH2             7.8197294280       -2.8061124159       -6.2402463352  W2        3531            0.0000000000
     10592      3531  TIP3      H1              7.3631294280       -2.2771424159       -6.8944063352  W2        3531            0.0000000000
     10593      3531  TIP3      H2              7.9825294280       -2.2029724159       -5.5150163352  W2        3531            0.0000000000
     10594      3532  TIP3      OH2            10.1473594280       -3.9281524159       -5.2952163352  W2        3532            0.0000000000
     10595      3532  TIP3      H1              9.2427294280       -3.7631324159       -5.5610063352  W2        3532            0.0000000000
     10596      3532  TIP3      H2             10.5762194280       -3.0749324159       -5.3608763352  W2        3532            0.0000000000
     10597      3533  TIP3      OH2            12.7515494280       -2.3582424159       -5.0004363352  W2        3533            0.0000000000
     10598      3533  TIP3      H1             12.5697494280       -1.4423524159       -5.2109463352  W2        3533            0.0000000000
     10599      3533  TIP3      H2             12.9283294280       -2.7685324159       -5.8469763352  W2        3533            0.0000000000
     10600      3534  TIP3      OH2             0.0567194280       -3.6711424159       -7.5353863352  W2        3534            0.0000000000
     10601      3534  TIP3      H1              0.0383194280       -4.0966324159       -6.6781563352  W2        3534            0.0000000000
     10602      3534  TIP3      H2              0.8615094280       -3.9896424159       -7.9441663352  W2        3534            0.0000000000
     10603      3535  TIP3      OH2             2.1980294280       -4.9612724159       -8.8803963352  W2        3535            0.0000000000
     10604      3535  TIP3      H1              1.9790994280       -5.8775324159       -8.7107963352  W2        3535            0.0000000000
     10605      3535  TIP3      H2              3.0222494280       -4.8212324159       -8.4142563352  W2        3535            0.0000000000
     10606      3536  TIP3      OH2             4.7352794280       -4.4913424159       -8.0315963352  W2        3536            0.0000000000
     10607      3536  TIP3      H1              4.9478494280       -5.3794424159       -8.3185063352  W2        3536            0.0000000000
     10608      3536  TIP3      H2              4.7997894280       -4.5255724159       -7.0771963352  W2        3536            0.0000000000
     10609      3537  TIP3      OH2             8.2436494280      -18.8272824159       -8.8872663352  W2        3537            0.0000000000
     10610      3537  TIP3      H1              7.5693294280      -19.4567224159       -8.6316863352  W2        3537            0.0000000000
     10611      3537  TIP3      H2              8.8075694280      -19.3113924159       -9.4904763352  W2        3537            0.0000000000
     10612      3538  TIP3      OH2            13.3863694280      -20.7198824159       -8.7745563352  W2        3538            0.0000000000
     10613      3538  TIP3      H1             13.9901294280      -20.1723424159       -9.2764563352  W2        3538            0.0000000000
     10614      3538  TIP3      H2             12.5165694280      -20.4008424159       -9.0151463352  W2        3538            0.0000000000
     10615      3539  TIP3      OH2            15.1134094280      -19.5810124159      -10.4414663352  W2        3539            0.0000000000
     10616      3539  TIP3      H1             15.7251594280      -20.0954424159      -10.9681063352  W2        3539            0.0000000000
     10617      3539  TIP3      H2             15.4957494280      -18.7038024159      -10.4180263352  W2        3539            0.0000000000
     10618      3540  TIP3      OH2             0.5703994280      -20.1932524159      -11.0652763352  W2        3540            0.0000000000
     10619      3540  TIP3      H1             -0.2066205720      -20.4277624159      -11.5726863352  W2        3540            0.0000000000
     10620      3540  TIP3      H2              1.1007594280      -20.9900424159      -11.0564763352  W2        3540            0.0000000000
     10621      3541  TIP3      OH2            -0.5932605720      -20.3954424159      -15.2616663352  W2        3541            0.0000000000
     10622      3541  TIP3      H1             -0.1541905720      -19.7843924159      -15.8533163352  W2        3541            0.0000000000
     10623      3541  TIP3      H2             -1.2270205720      -19.8570324159      -14.7876663352  W2        3541            0.0000000000
     10624      3542  TIP3      OH2             5.1496594280      -20.2665424159      -11.2519663352  W2        3542            0.0000000000
     10625      3542  TIP3      H1              6.0239994280      -19.8781124159      -11.2815363352  W2        3542            0.0000000000
     10626      3542  TIP3      H2              5.0137394280      -20.4817624159      -10.3292463352  W2        3542            0.0000000000
     10627      3543  TIP3      OH2            10.7064994280      -20.2365624159       -9.6027963352  W2        3543            0.0000000000
     10628      3543  TIP3      H1             10.7826594280      -20.1414024159      -10.5521963352  W2        3543            0.0000000000
     10629      3543  TIP3      H2             10.4314194280      -21.1442724159       -9.4738863352  W2        3543            0.0000000000
     10630      3544  TIP3      OH2            12.0597594280      -20.2107824159      -13.9102963352  W2        3544            0.0000000000
     10631      3544  TIP3      H1             11.3568694280      -19.5958624159      -14.1201563352  W2        3544            0.0000000000
     10632      3544  TIP3      H2             11.6148994280      -21.0481124159      -13.7792063352  W2        3544            0.0000000000
     10633      3545  TIP3      OH2            -0.6923105720       -4.4472224159      -14.3641563352  W2        3545            0.0000000000
     10634      3545  TIP3      H1             -1.3773205720       -4.4853324159      -15.0316463352  W2        3545            0.0000000000
     10635      3545  TIP3      H2             -0.6885905720       -3.5344624159      -14.0759463352  W2        3545            0.0000000000
     10636      3546  TIP3      OH2             1.2676494280      -18.4792924159      -16.8192563352  W2        3546            0.0000000000
     10637      3546  TIP3      H1              1.7589894280      -19.1090524159      -17.3467063352  W2        3546            0.0000000000
     10638      3546  TIP3      H2              1.8912794280      -18.1833524159      -16.1561363352  W2        3546            0.0000000000
     10639      3547  TIP3      OH2             6.2936594280      -18.1861424159      -14.3622063352  W2        3547            0.0000000000
     10640      3547  TIP3      H1              6.4717894280      -18.8328224159      -13.6793463352  W2        3547            0.0000000000
     10641      3547  TIP3      H2              6.2402794280      -17.3523724159      -13.8950963352  W2        3547            0.0000000000
     10642      3548  TIP3      OH2             8.1720394280       -3.2377324159      -15.9665363352  W2        3548            0.0000000000
     10643      3548  TIP3      H1              9.0380594280       -2.8709924159      -16.1447163352  W2        3548            0.0000000000
     10644      3548  TIP3      H2              7.9253194280       -3.6769324159      -16.7804563352  W2        3548            0.0000000000
     10645      3549  TIP3      OH2            14.8809994280       -3.6747024159      -13.2874263352  W2        3549            0.0000000000
     10646      3549  TIP3      H1             14.6867094280       -4.4224924159      -13.8524663352  W2        3549            0.0000000000
     10647      3549  TIP3      H2             14.8420094280       -2.9166924159      -13.8706363352  W2        3549            0.0000000000
     10648      3550  TIP3      OH2             0.5281994280      -19.6790624159       -1.5476563352  W2        3550            0.0000000000
     10649      3550  TIP3      H1              0.1620194280      -20.4448024159       -1.1051863352  W2        3550            0.0000000000
     10650      3550  TIP3      H2              1.4410494280      -19.6500424159       -1.2611463352  W2        3550            0.0000000000
     10651      3551  TIP3      OH2             2.5012794280      -20.3286224159       -0.0119463352  W2        3551            0.0000000000
     10652      3551  TIP3      H1              3.3996394280      -20.6026024159       -0.1966063352  W2        3551            0.0000000000
     10653      3551  TIP3      H2              2.1145894280      -21.0710224159        0.4523136648  W2        3551            0.0000000000
     10654      3552  TIP3      OH2             1.1258094280       -3.5271424159      -17.3389463352  W2        3552            0.0000000000
     10655      3552  TIP3      H1              0.8582694280       -3.2408524159      -16.4656363352  W2        3552            0.0000000000
     10656      3552  TIP3      H2              1.8970694280       -4.0732224159      -17.1866963352  W2        3552            0.0000000000
     10657      3553  TIP3      OH2            10.9225094280      -20.9960924159        0.1703336648  W2        3553            0.0000000000
     10658      3553  TIP3      H1             10.9992294280      -21.4220224159        1.0241036648  W2        3553            0.0000000000
     10659      3553  TIP3      H2             11.8161694280      -20.9826224159       -0.1723163352  W2        3553            0.0000000000
     10660      3554  TIP3      OH2            14.0986194280       -4.9234624159       -1.1372463352  W2        3554            0.0000000000
     10661      3554  TIP3      H1             13.3168094280       -5.1096624159       -1.6571863352  W2        3554            0.0000000000
     10662      3554  TIP3      H2             14.0266094280       -3.9940324159       -0.9199963352  W2        3554            0.0000000000
     10663      3555  TIP3      OH2            28.5046594280      -11.0370224159      -11.1065263352  W2        3555            0.0000000000
     10664      3555  TIP3      H1             28.5937694280      -10.0932024159      -11.2388163352  W2        3555            0.0000000000
     10665      3555  TIP3      H2             27.8664194280      -11.3123824159      -11.7645863352  W2        3555            0.0000000000
     10666      3556  TIP3      OH2            27.4377894280      -11.7819524159       -7.6877063352  W2        3556            0.0000000000
     10667      3556  TIP3      H1             27.3995394280      -12.4283224159       -6.9827463352  W2        3556            0.0000000000
     10668      3556  TIP3      H2             27.1154394280      -12.2485124159       -8.4588363352  W2        3556            0.0000000000
     10669      3557  TIP3      OH2            19.8062894280      -12.1677424159       -6.0947163352  W2        3557            0.0000000000
     10670      3557  TIP3      H1             19.8474994280      -12.7934124159       -5.3714763352  W2        3557            0.0000000000
     10671      3557  TIP3      H2             20.5090594280      -11.5438824159       -5.9126763352  W2        3557            0.0000000000
     10672      3558  TIP3      OH2            31.1438094280       -8.8429124159       -9.3861963352  W2        3558            0.0000000000
     10673      3558  TIP3      H1             30.7030794280       -9.5633124159       -8.9356363352  W2        3558            0.0000000000
     10674      3558  TIP3      H2             31.1307794280       -8.1221924159       -8.7564263352  W2        3558            0.0000000000
     10675      3559  TIP3      OH2            20.7295994280       -7.7178524159       -7.5598063352  W2        3559            0.0000000000
     10676      3559  TIP3      H1             20.3601194280       -8.5198024159       -7.9293763352  W2        3559            0.0000000000
     10677      3559  TIP3      H2             21.6707094280       -7.8863624159       -7.5134663352  W2        3559            0.0000000000
     10678      3560  TIP3      OH2            17.3396494280      -14.0575924159      -12.1669263352  W2        3560            0.0000000000
     10679      3560  TIP3      H1             16.8919894280      -13.2117224159      -12.1852763352  W2        3560            0.0000000000
     10680      3560  TIP3      H2             16.7787694280      -14.6371724159      -12.6824163352  W2        3560            0.0000000000
     10681      3561  TIP3      OH2            18.0502594280      -11.8956324159      -10.0411263352  W2        3561            0.0000000000
     10682      3561  TIP3      H1             18.2636094280      -12.6654724159       -9.5138263352  W2        3561            0.0000000000
     10683      3561  TIP3      H2             18.7880194280      -11.8059624159      -10.6443663352  W2        3561            0.0000000000
     10684      3562  TIP3      OH2            28.2553594280       -3.7387424159       -9.1741563352  W2        3562            0.0000000000
     10685      3562  TIP3      H1             28.8749994280       -4.4152724159       -9.4472363352  W2        3562            0.0000000000
     10686      3562  TIP3      H2             28.0470994280       -3.9566624159       -8.2656663352  W2        3562            0.0000000000
     10687      3563  TIP3      OH2            25.8272294280       -9.3498124159       -7.2816063352  W2        3563            0.0000000000
     10688      3563  TIP3      H1             26.1310194280      -10.0356724159       -7.8761963352  W2        3563            0.0000000000
     10689      3563  TIP3      H2             26.5486294280       -9.2309424159       -6.6638063352  W2        3563            0.0000000000
     10690      3564  TIP3      OH2            34.4902094280      -17.7482824159       -6.4209863352  W2        3564            0.0000000000
     10691      3564  TIP3      H1             34.5394294280      -17.1381624159       -5.6850763352  W2        3564            0.0000000000
     10692      3564  TIP3      H2             34.9157194280      -17.2871924159       -7.1438763352  W2        3564            0.0000000000
     10693      3565  TIP3      OH2            28.9679294280      -14.9555724159       -6.9541263352  W2        3565            0.0000000000
     10694      3565  TIP3      H1             29.1105194280      -15.9018724159       -6.9339663352  W2        3565            0.0000000000
     10695      3565  TIP3      H2             28.8618294280      -14.7485924159       -7.8826363352  W2        3565            0.0000000000
     10696      3566  TIP3      OH2            22.1227594280      -16.8539324159       -9.6816463352  W2        3566            0.0000000000
     10697      3566  TIP3      H1             22.1658694280      -15.9940824159      -10.1000163352  W2        3566            0.0000000000
     10698      3566  TIP3      H2             21.6651694280      -17.4064624159      -10.3153263352  W2        3566            0.0000000000
     10699      3567  TIP3      OH2            29.8450294280      -16.7233724159      -11.2808163352  W2        3567            0.0000000000
     10700      3567  TIP3      H1             30.4914594280      -17.0520524159      -10.6560563352  W2        3567            0.0000000000
     10701      3567  TIP3      H2             30.3549694280      -16.2054724159      -11.9036763352  W2        3567            0.0000000000
     10702      3568  TIP3      OH2            18.7429094280      -14.4573524159       -8.9195063352  W2        3568            0.0000000000
     10703      3568  TIP3      H1             19.3965694280      -15.0071824159       -8.4874963352  W2        3568            0.0000000000
     10704      3568  TIP3      H2             18.7668394280      -14.7314524159       -9.8363063352  W2        3568            0.0000000000
     10705      3569  TIP3      OH2            23.8993594280      -12.9072224159       -9.7043563352  W2        3569            0.0000000000
     10706      3569  TIP3      H1             24.5154594280      -13.4336824159       -9.1949563352  W2        3569            0.0000000000
     10707      3569  TIP3      H2             23.3132394280      -13.5473524159      -10.1079963352  W2        3569            0.0000000000
     10708      3570  TIP3      OH2            34.8816694280      -16.2703624159       -4.1850063352  W2        3570            0.0000000000
     10709      3570  TIP3      H1             34.1931294280      -15.6122924159       -4.2803463352  W2        3570            0.0000000000
     10710      3570  TIP3      H2             34.8971294280      -16.4675724159       -3.2484663352  W2        3570            0.0000000000
     10711      3571  TIP3      OH2            20.9329494280      -17.9360924159       -5.6075663352  W2        3571            0.0000000000
     10712      3571  TIP3      H1             20.7141194280      -17.4060324159       -6.3739663352  W2        3571            0.0000000000
     10713      3571  TIP3      H2             20.2650394280      -17.7095424159       -4.9604263352  W2        3571            0.0000000000
     10714      3572  TIP3      OH2            28.3019294280       -8.4359824159      -12.0636563352  W2        3572            0.0000000000
     10715      3572  TIP3      H1             28.0064394280       -8.7587524159      -12.9149663352  W2        3572            0.0000000000
     10716      3572  TIP3      H2             27.9777094280       -7.5363124159      -12.0223963352  W2        3572            0.0000000000
     10717      3573  TIP3      OH2            23.5020894280      -10.2605224159       -5.3201963352  W2        3573            0.0000000000
     10718      3573  TIP3      H1             22.7619994280       -9.6623724159       -5.2166763352  W2        3573            0.0000000000
     10719      3573  TIP3      H2             24.2160394280       -9.7065624159       -5.6358363352  W2        3573            0.0000000000
     10720      3574  TIP3      OH2            31.6088694280      -17.4324424159       -9.3002263352  W2        3574            0.0000000000
     10721      3574  TIP3      H1             31.3936694280      -18.1981024159       -8.7676263352  W2        3574            0.0000000000
     10722      3574  TIP3      H2             32.2646094280      -16.9599824159       -8.7873763352  W2        3574            0.0000000000
     10723      3575  TIP3      OH2            20.5266794280      -16.0439124159       -7.6553463352  W2        3575            0.0000000000
     10724      3575  TIP3      H1             21.1403094280      -15.4111524159       -7.2821063352  W2        3575            0.0000000000
     10725      3575  TIP3      H2             21.0387494280      -16.5164124159       -8.3116563352  W2        3575            0.0000000000
     10726      3576  TIP3      OH2            21.9095194280       -8.2962224159       -4.5330463352  W2        3576            0.0000000000
     10727      3576  TIP3      H1             21.9042794280       -7.4168724159       -4.9111163352  W2        3576            0.0000000000
     10728      3576  TIP3      H2             21.0559294280       -8.3798124159       -4.1080563352  W2        3576            0.0000000000
     10729      3577  TIP3      OH2            18.0306094280       -8.6254324159      -13.7511163352  W2        3577            0.0000000000
     10730      3577  TIP3      H1             17.7586994280       -8.3963324159      -14.6398263352  W2        3577            0.0000000000
     10731      3577  TIP3      H2             18.0761794280       -7.7875524159      -13.2905863352  W2        3577            0.0000000000
     10732      3578  TIP3      OH2            31.6555794280       -7.0038424159       -7.0382663352  W2        3578            0.0000000000
     10733      3578  TIP3      H1             30.7139494280       -6.9454524159       -6.8765763352  W2        3578            0.0000000000
     10734      3578  TIP3      H2             31.9321894280       -6.0977924159       -7.1752963352  W2        3578            0.0000000000
     10735      3579  TIP3      OH2            31.9562794280      -18.7173124159       -5.6208763352  W2        3579            0.0000000000
     10736      3579  TIP3      H1             31.2201994280      -18.1066024159       -5.6587463352  W2        3579            0.0000000000
     10737      3579  TIP3      H2             32.6396794280      -18.3024124159       -6.1472363352  W2        3579            0.0000000000
     10738      3580  TIP3      OH2            24.9594194280      -20.6305824159       -8.1550763352  W2        3580            0.0000000000
     10739      3580  TIP3      H1             24.8418394280      -21.5789824159       -8.2092463352  W2        3580            0.0000000000
     10740      3580  TIP3      H2             24.1044294280      -20.2979724159       -7.8819663352  W2        3580            0.0000000000
     10741      3581  TIP3      OH2            29.9076994280       -5.2224924159      -10.4131063352  W2        3581            0.0000000000
     10742      3581  TIP3      H1             30.3329294280       -5.9297024159      -10.8981463352  W2        3581            0.0000000000
     10743      3581  TIP3      H2             30.2246994280       -4.4212224159      -10.8298863352  W2        3581            0.0000000000
     10744      3582  TIP3      OH2            31.0673494280       -7.3216424159      -11.9044463352  W2        3582            0.0000000000
     10745      3582  TIP3      H1             30.8098294280       -8.0116324159      -12.5158563352  W2        3582            0.0000000000
     10746      3582  TIP3      H2             31.1384294280       -7.7645224159      -11.0588563352  W2        3582            0.0000000000
     10747      3583  TIP3      OH2            32.7533694280       -8.7549724159       -3.4270963352  W2        3583            0.0000000000
     10748      3583  TIP3      H1             32.8929994280       -9.3467224159       -4.1663963352  W2        3583            0.0000000000
     10749      3583  TIP3      H2             32.9206494280       -7.8823824159       -3.7832163352  W2        3583            0.0000000000
     10750      3584  TIP3      OH2            27.2259094280      -11.7930224159      -13.6544963352  W2        3584            0.0000000000
     10751      3584  TIP3      H1             26.5144594280      -11.2580524159      -14.0064463352  W2        3584            0.0000000000
     10752      3584  TIP3      H2             27.9168694280      -11.7378124159      -14.3146063352  W2        3584            0.0000000000
     10753      3585  TIP3      OH2            27.2798294280      -13.3355924159      -16.6159963352  W2        3585            0.0000000000
     10754      3585  TIP3      H1             27.9808194280      -13.3129024159      -15.9645963352  W2        3585            0.0000000000
     10755      3585  TIP3      H2             27.5821194280      -13.9636224159      -17.2720663352  W2        3585            0.0000000000
     10756      3586  TIP3      OH2            34.5952994280      -12.4151724159       -5.3610563352  W2        3586            0.0000000000
     10757      3586  TIP3      H1             33.9427094280      -11.7206124159       -5.2719663352  W2        3586            0.0000000000
     10758      3586  TIP3      H2             35.0603294280      -12.2050824159       -6.1708963352  W2        3586            0.0000000000
     10759      3587  TIP3      OH2            30.6316794280      -11.5836924159      -12.7029063352  W2        3587            0.0000000000
     10760      3587  TIP3      H1             29.8997794280      -11.3553224159      -12.1298463352  W2        3587            0.0000000000
     10761      3587  TIP3      H2             31.0788994280      -12.2974224159      -12.2481563352  W2        3587            0.0000000000
     10762      3588  TIP3      OH2            30.5290294280      -13.4094324159       -3.6352063352  W2        3588            0.0000000000
     10763      3588  TIP3      H1             30.6089394280      -12.6459924159       -3.0633563352  W2        3588            0.0000000000
     10764      3588  TIP3      H2             29.9277994280      -13.1301924159       -4.3256963352  W2        3588            0.0000000000
     10765      3589  TIP3      OH2            22.2770494280      -10.9530724159      -10.8204063352  W2        3589            0.0000000000
     10766      3589  TIP3      H1             21.9465694280      -11.3237324159      -11.6387063352  W2        3589            0.0000000000
     10767      3589  TIP3      H2             22.8654594280      -11.6236724159      -10.4735763352  W2        3589            0.0000000000
     10768      3590  TIP3      OH2            23.6437994280       -7.5250124159       -8.1391863352  W2        3590            0.0000000000
     10769      3590  TIP3      H1             23.5489294280       -8.1037024159       -8.8957263352  W2        3590            0.0000000000
     10770      3590  TIP3      H2             24.3731594280       -7.8964424159       -7.6429063352  W2        3590            0.0000000000
     10771      3591  TIP3      OH2            22.6435994280      -12.1845124159       -7.1869063352  W2        3591            0.0000000000
     10772      3591  TIP3      H1             23.2088494280      -12.0630924159       -7.9497863352  W2        3591            0.0000000000
     10773      3591  TIP3      H2             22.9624894280      -11.5470124159       -6.5480563352  W2        3591            0.0000000000
     10774      3592  TIP3      OH2            28.9528194280       -6.6813224159       -6.4528563352  W2        3592            0.0000000000
     10775      3592  TIP3      H1             28.7124794280       -6.0190124159       -5.8049363352  W2        3592            0.0000000000
     10776      3592  TIP3      H2             28.7546394280       -7.5158024159       -6.0278963352  W2        3592            0.0000000000
     10777      3593  TIP3      OH2            23.5236694280       -7.7852424159       -2.4697163352  W2        3593            0.0000000000
     10778      3593  TIP3      H1             23.2124194280       -7.0029224159       -2.0143963352  W2        3593            0.0000000000
     10779      3593  TIP3      H2             22.8736894280       -7.9383324159       -3.1555163352  W2        3593            0.0000000000
     10780      3594  TIP3      OH2            29.5026294280      -12.4214024159      -15.0177863352  W2        3594            0.0000000000
     10781      3594  TIP3      H1             30.0821794280      -12.2713724159      -14.2708963352  W2        3594            0.0000000000
     10782      3594  TIP3      H2             29.9166294280      -11.9506624159      -15.7411463352  W2        3594            0.0000000000
     10783      3595  TIP3      OH2            20.4436594280      -11.5871324159       -3.2411463352  W2        3595            0.0000000000
     10784      3595  TIP3      H1             20.5139794280      -10.9364524159       -2.5426463352  W2        3595            0.0000000000
     10785      3595  TIP3      H2             19.5528794280      -11.4843824159       -3.5760563352  W2        3595            0.0000000000
     10786      3596  TIP3      OH2            27.2291194280       -5.6845524159      -11.5824763352  W2        3596            0.0000000000
     10787      3596  TIP3      H1             27.7028794280       -5.3889224159      -10.8050563352  W2        3596            0.0000000000
     10788      3596  TIP3      H2             26.6660494280       -4.9463924159      -11.8155163352  W2        3596            0.0000000000
     10789      3597  TIP3      OH2            21.7632594280       -5.7137424159       -1.7063363352  W2        3597            0.0000000000
     10790      3597  TIP3      H1             21.7707894280       -5.8497724159       -2.6537863352  W2        3597            0.0000000000
     10791      3597  TIP3      H2             20.8472994280       -5.8309324159       -1.4543363352  W2        3597            0.0000000000
     10792      3598  TIP3      OH2            33.2014694280      -20.6713624159      -15.2048163352  W2        3598            0.0000000000
     10793      3598  TIP3      H1             32.3015394280      -20.5324624159      -14.9097563352  W2        3598            0.0000000000
     10794      3598  TIP3      H2             33.4533094280      -19.8399024159      -15.6066463352  W2        3598            0.0000000000
     10795      3599  TIP3      OH2            21.2673194280      -11.8836424159      -13.2311263352  W2        3599            0.0000000000
     10796      3599  TIP3      H1             20.9754494280      -11.1154724159      -13.7219963352  W2        3599            0.0000000000
     10797      3599  TIP3      H2             20.5928394280      -12.5430224159      -13.3939863352  W2        3599            0.0000000000
     10798      3600  TIP3      OH2            34.3906094280       -6.3051224159      -16.8284263352  W2        3600            0.0000000000
     10799      3600  TIP3      H1             34.4639594280       -5.3661024159      -16.6578963352  W2        3600            0.0000000000
     10800      3600  TIP3      H2             35.2961194280       -6.6102624159      -16.8846963352  W2        3600            0.0000000000
     10801      3601  TIP3      OH2            17.3603294280       -9.5207224159       -4.4161463352  W2        3601            0.0000000000
     10802      3601  TIP3      H1             16.8591694280       -9.5487824159       -5.2311763352  W2        3601            0.0000000000
     10803      3601  TIP3      H2             17.3656994280      -10.4264024159       -4.1064163352  W2        3601            0.0000000000
     10804      3602  TIP3      OH2            17.1105994280       -6.7403424159       -7.5321263352  W2        3602            0.0000000000
     10805      3602  TIP3      H1             18.0566594280       -6.8846424159       -7.5511763352  W2        3602            0.0000000000
     10806      3602  TIP3      H2             16.9982294280       -5.9560624159       -6.9950063352  W2        3602            0.0000000000
     10807      3603  TIP3      OH2            35.3084494280       -6.0743724159       -1.8497563352  W2        3603            0.0000000000
     10808      3603  TIP3      H1             35.2591294280       -7.0295624159       -1.8869963352  W2        3603            0.0000000000
     10809      3603  TIP3      H2             34.4816794280       -5.8068424159       -1.4483763352  W2        3603            0.0000000000
     10810      3604  TIP3      OH2            26.2868494280       -6.5004524159       -2.9736163352  W2        3604            0.0000000000
     10811      3604  TIP3      H1             26.3743094280       -5.6739924159       -2.4987063352  W2        3604            0.0000000000
     10812      3604  TIP3      H2             25.4233594280       -6.8300724159       -2.7246863352  W2        3604            0.0000000000
     10813      3605  TIP3      OH2            26.7014294280       -2.7280824159      -13.1675563352  W2        3605            0.0000000000
     10814      3605  TIP3      H1             26.6260294280       -2.8493624159      -14.1140363352  W2        3605            0.0000000000
     10815      3605  TIP3      H2             26.7342994280       -1.7788124159      -13.0490963352  W2        3605            0.0000000000
     10816      3606  TIP3      OH2            20.3548094280       -3.9393824159      -11.3866563352  W2        3606            0.0000000000
     10817      3606  TIP3      H1             20.5068494280       -4.2873424159      -10.5080063352  W2        3606            0.0000000000
     10818      3606  TIP3      H2             19.5038494280       -4.2956524159      -11.6419363352  W2        3606            0.0000000000
     10819      3607  TIP3      OH2            29.8030294280       -3.5740624159      -16.1653163352  W2        3607            0.0000000000
     10820      3607  TIP3      H1             30.1778694280       -4.3184524159      -16.6360563352  W2        3607            0.0000000000
     10821      3607  TIP3      H2             29.8073994280       -3.8440024159      -15.2469863352  W2        3607            0.0000000000
     10822      3608  TIP3      OH2            29.4718394280       -3.6483524159      -13.4160963352  W2        3608            0.0000000000
     10823      3608  TIP3      H1             28.5368194280       -3.5481624159      -13.2373963352  W2        3608            0.0000000000
     10824      3608  TIP3      H2             29.7520294280       -4.3577524159      -12.8377763352  W2        3608            0.0000000000
     10825      3609  TIP3      OH2            32.4604294280      -14.5811224159       -1.3695363352  W2        3609            0.0000000000
     10826      3609  TIP3      H1             32.0531094280      -14.1005624159       -2.0902063352  W2        3609            0.0000000000
     10827      3609  TIP3      H2             32.5009994280      -15.4865224159       -1.6774563352  W2        3609            0.0000000000
     10828      3610  TIP3      OH2            19.6093794280       -8.1971824159       -3.3728663352  W2        3610            0.0000000000
     10829      3610  TIP3      H1             19.8255094280       -8.5586224159       -2.5132863352  W2        3610            0.0000000000
     10830      3610  TIP3      H2             18.7538494280       -8.5718024159       -3.5825163352  W2        3610            0.0000000000
     10831      3611  TIP3      OH2            22.2281794280      -19.7271324159       -7.3774463352  W2        3611            0.0000000000
     10832      3611  TIP3      H1             21.3665494280      -19.8143124159       -7.7851563352  W2        3611            0.0000000000
     10833      3611  TIP3      H2             22.2057494280      -18.8711224159       -6.9496863352  W2        3611            0.0000000000
     10834      3612  TIP3      OH2            26.8909594280      -20.0050924159       -4.0027463352  W2        3612            0.0000000000
     10835      3612  TIP3      H1             27.3112694280      -20.4203824159       -3.2496863352  W2        3612            0.0000000000
     10836      3612  TIP3      H2             25.9579194280      -20.1837624159       -3.8855463352  W2        3612            0.0000000000
     10837      3613  TIP3      OH2            30.2174494280      -16.2495724159       -3.1492963352  W2        3613            0.0000000000
     10838      3613  TIP3      H1             29.7033994280      -16.3753524159       -2.3516963352  W2        3613            0.0000000000
     10839      3613  TIP3      H2             30.0619194280      -15.3372624159       -3.3936763352  W2        3613            0.0000000000
     10840      3614  TIP3      OH2            30.9799394280      -11.3885724159      -17.3879963352  W2        3614            0.0000000000
     10841      3614  TIP3      H1             31.0220194280      -11.6111824159      -18.3179963352  W2        3614            0.0000000000
     10842      3614  TIP3      H2             31.8291494280      -10.9898624159      -17.1980063352  W2        3614            0.0000000000
     10843      3615  TIP3      OH2            26.5526894280      -17.5127524159      -16.7176663352  W2        3615            0.0000000000
     10844      3615  TIP3      H1             26.2991694280      -17.4935924159      -15.7948563352  W2        3615            0.0000000000
     10845      3615  TIP3      H2             26.2958994280      -18.3842124159      -17.0190463352  W2        3615            0.0000000000
     10846      3616  TIP3      OH2            22.3191894280      -14.7616824159       -6.2824263352  W2        3616            0.0000000000
     10847      3616  TIP3      H1             21.6773994280      -14.8019524159       -5.5734163352  W2        3616            0.0000000000
     10848      3616  TIP3      H2             22.3563894280      -13.8352124159       -6.5201263352  W2        3616            0.0000000000
     10849      3617  TIP3      OH2            22.3160994280      -14.5406724159      -11.3704263352  W2        3617            0.0000000000
     10850      3617  TIP3      H1             21.4233894280      -14.8810624159      -11.4290463352  W2        3617            0.0000000000
     10851      3617  TIP3      H2             22.7667594280      -14.9175824159      -12.1261063352  W2        3617            0.0000000000
     10852      3618  TIP3      OH2            27.8516494280      -14.1246424159      -12.5533463352  W2        3618            0.0000000000
     10853      3618  TIP3      H1             27.4426794280      -13.3097824159      -12.8448663352  W2        3618            0.0000000000
     10854      3618  TIP3      H2             28.5722694280      -14.2646324159      -13.1676363352  W2        3618            0.0000000000
     10855      3619  TIP3      OH2            26.9538094280      -13.9490024159       -1.0652763352  W2        3619            0.0000000000
     10856      3619  TIP3      H1             26.3911894280      -14.6538424159       -0.7444963352  W2        3619            0.0000000000
     10857      3619  TIP3      H2             27.7801494280      -14.0698124159       -0.5975163352  W2        3619            0.0000000000
     10858      3620  TIP3      OH2            28.8564194280      -14.6786024159       -9.7393763352  W2        3620            0.0000000000
     10859      3620  TIP3      H1             28.6608694280      -14.0729224159      -10.4543163352  W2        3620            0.0000000000
     10860      3620  TIP3      H2             29.0376794280      -15.5120824159      -10.1737463352  W2        3620            0.0000000000
     10861      3621  TIP3      OH2            20.0692394280      -14.4413324159       -4.4152263352  W2        3621            0.0000000000
     10862      3621  TIP3      H1             20.0311794280      -14.0411724159       -3.5465163352  W2        3621            0.0000000000
     10863      3621  TIP3      H2             19.5783494280      -15.2580924159       -4.3249363352  W2        3621            0.0000000000
     10864      3622  TIP3      OH2            23.4349794280      -17.0671024159      -17.6166263352  W2        3622            0.0000000000
     10865      3622  TIP3      H1             23.0040494280      -17.5120924159      -16.8868863352  W2        3622            0.0000000000
     10866      3622  TIP3      H2             22.7168494280      -16.6954724159      -18.1288763352  W2        3622            0.0000000000
     10867      3623  TIP3      OH2            16.6773194280      -17.3251524159      -10.5647563352  W2        3623            0.0000000000
     10868      3623  TIP3      H1             17.3080894280      -17.3539424159       -9.8453663352  W2        3623            0.0000000000
     10869      3623  TIP3      H2             17.1267494280      -17.7502824159      -11.2951663352  W2        3623            0.0000000000
     10870      3624  TIP3      OH2            17.9515294280      -16.5789524159      -15.1407163352  W2        3624            0.0000000000
     10871      3624  TIP3      H1             18.4256994280      -15.9879624159      -15.7256263352  W2        3624            0.0000000000
     10872      3624  TIP3      H2             17.2341694280      -16.0486624159      -14.7937063352  W2        3624            0.0000000000
     10873      3625  TIP3      OH2            28.1203394280      -13.0404724159       -5.0681363352  W2        3625            0.0000000000
     10874      3625  TIP3      H1             28.4438194280      -13.6715024159       -5.7110863352  W2        3625            0.0000000000
     10875      3625  TIP3      H2             27.6802694280      -13.5752524159       -4.4073963352  W2        3625            0.0000000000
     10876      3626  TIP3      OH2            24.8976294280      -17.1129224159      -10.2840163352  W2        3626            0.0000000000
     10877      3626  TIP3      H1             23.9867394280      -17.0562424159       -9.9954163352  W2        3626            0.0000000000
     10878      3626  TIP3      H2             25.4029194280      -17.1733724159       -9.4732963352  W2        3626            0.0000000000
     10879      3627  TIP3      OH2            19.7259694280      -15.4842924159      -11.4572563352  W2        3627            0.0000000000
     10880      3627  TIP3      H1             18.8367694280      -15.3847424159      -11.7972963352  W2        3627            0.0000000000
     10881      3627  TIP3      H2             20.0224594280      -16.3259924159      -11.8034663352  W2        3627            0.0000000000
     10882      3628  TIP3      OH2            23.3791494280      -15.4840324159      -13.8007963352  W2        3628            0.0000000000
     10883      3628  TIP3      H1             24.3106994280      -15.3550324159      -13.6224863352  W2        3628            0.0000000000
     10884      3628  TIP3      H2             23.1641794280      -14.8146024159      -14.4503263352  W2        3628            0.0000000000
     10885      3629  TIP3      OH2            29.3028194280      -17.8782924159       -7.0198363352  W2        3629            0.0000000000
     10886      3629  TIP3      H1             28.6259794280      -17.7469824159       -6.3558663352  W2        3629            0.0000000000
     10887      3629  TIP3      H2             28.8173094280      -18.0333424159       -7.8300663352  W2        3629            0.0000000000
     10888      3630  TIP3      OH2            22.0531694280      -14.2898124159      -16.2341863352  W2        3630            0.0000000000
     10889      3630  TIP3      H1             21.5106794280      -14.6694324159      -16.9254263352  W2        3630            0.0000000000
     10890      3630  TIP3      H2             22.8866594280      -14.0953424159      -16.6627763352  W2        3630            0.0000000000
     10891      3631  TIP3      OH2            32.5903294280       -2.2067524159       -0.7430763352  W2        3631            0.0000000000
     10892      3631  TIP3      H1             32.7901994280       -1.7825624159       -1.5775463352  W2        3631            0.0000000000
     10893      3631  TIP3      H2             33.2456994280       -1.8629324159       -0.1360363352  W2        3631            0.0000000000
     10894      3632  TIP3      OH2            20.1883094280       -9.7326224159       -1.1350263352  W2        3632            0.0000000000
     10895      3632  TIP3      H1             20.9205494280       -9.4780324159       -0.5735763352  W2        3632            0.0000000000
     10896      3632  TIP3      H2             19.4081794280       -9.5280824159       -0.6194863352  W2        3632            0.0000000000
     10897      3633  TIP3      OH2            26.2175994280      -14.3256224159       -8.3970563352  W2        3633            0.0000000000
     10898      3633  TIP3      H1             26.7819394280      -14.8719624159       -8.9440963352  W2        3633            0.0000000000
     10899      3633  TIP3      H2             26.0699394280      -14.8474324159       -7.6082963352  W2        3633            0.0000000000
     10900      3634  TIP3      OH2            21.2195694280      -18.1890124159      -11.9785763352  W2        3634            0.0000000000
     10901      3634  TIP3      H1             20.9025194280      -19.0914824159      -12.0140363352  W2        3634            0.0000000000
     10902      3634  TIP3      H2             22.0009794280      -18.1872724159      -12.5314163352  W2        3634            0.0000000000
     10903      3635  TIP3      OH2            24.8441894280      -15.9370124159       -5.9830163352  W2        3635            0.0000000000
     10904      3635  TIP3      H1             24.0087194280      -15.4830624159       -5.8727763352  W2        3635            0.0000000000
     10905      3635  TIP3      H2             25.3682494280      -15.6611624159       -5.2310263352  W2        3635            0.0000000000
     10906      3636  TIP3      OH2            25.3884494280       -9.7242424159      -14.2983763352  W2        3636            0.0000000000
     10907      3636  TIP3      H1             24.6435494280      -10.2317124159      -14.6205863352  W2        3636            0.0000000000
     10908      3636  TIP3      H2             25.2541694280       -9.6754424159      -13.3518963352  W2        3636            0.0000000000
     10909      3637  TIP3      OH2            32.5383394280      -10.5914224159       -5.5116163352  W2        3637            0.0000000000
     10910      3637  TIP3      H1             33.1802194280      -10.1347924159       -6.0553963352  W2        3637            0.0000000000
     10911      3637  TIP3      H2             31.7080294280      -10.4781824159       -5.9742063352  W2        3637            0.0000000000
     10912      3638  TIP3      OH2            29.2861294280      -16.9102524159      -16.0991163352  W2        3638            0.0000000000
     10913      3638  TIP3      H1             28.3475494280      -16.7986924159      -16.2502363352  W2        3638            0.0000000000
     10914      3638  TIP3      H2             29.5833394280      -16.0535624159      -15.7925463352  W2        3638            0.0000000000
     10915      3639  TIP3      OH2            26.9076594280       -9.5399124159       -3.0614663352  W2        3639            0.0000000000
     10916      3639  TIP3      H1             26.5622694280       -9.9216724159       -2.2545063352  W2        3639            0.0000000000
     10917      3639  TIP3      H2             26.7076694280       -8.6065524159       -2.9901763352  W2        3639            0.0000000000
     10918      3640  TIP3      OH2            30.0044794280      -15.0429824159      -14.4383763352  W2        3640            0.0000000000
     10919      3640  TIP3      H1             30.8963794280      -15.1804824159      -14.1192563352  W2        3640            0.0000000000
     10920      3640  TIP3      H2             30.0608394280      -14.2523724159      -14.9750263352  W2        3640            0.0000000000
     10921      3641  TIP3      OH2            20.5132794280      -10.4292424159       -8.5285863352  W2        3641            0.0000000000
     10922      3641  TIP3      H1             21.2579994280      -10.4316724159       -9.1299363352  W2        3641            0.0000000000
     10923      3641  TIP3      H2             20.5909394280      -11.2528624159       -8.0470763352  W2        3641            0.0000000000
     10924      3642  TIP3      OH2            27.5138594280       -8.2658124159      -15.2729163352  W2        3642            0.0000000000
     10925      3642  TIP3      H1             27.2186994280       -7.4390224159      -14.8914363352  W2        3642            0.0000000000
     10926      3642  TIP3      H2             26.8108594280       -8.8851224159      -15.0767763352  W2        3642            0.0000000000
     10927      3643  TIP3      OH2            17.5212494280      -11.9685524159       -3.2137363352  W2        3643            0.0000000000
     10928      3643  TIP3      H1             17.7441094280      -12.3865924159       -2.3819863352  W2        3643            0.0000000000
     10929      3643  TIP3      H2             16.9192594280      -12.5810524159       -3.6364563352  W2        3643            0.0000000000
     10930      3644  TIP3      OH2            24.5377394280      -12.4515624159       -1.0007663352  W2        3644            0.0000000000
     10931      3644  TIP3      H1             24.2418194280      -12.6172624159       -1.8958563352  W2        3644            0.0000000000
     10932      3644  TIP3      H2             25.4692594280      -12.6715324159       -1.0113763352  W2        3644            0.0000000000
     10933      3645  TIP3      OH2            29.1580194280       -7.0783624159       -3.1109663352  W2        3645            0.0000000000
     10934      3645  TIP3      H1             28.2574494280       -6.8951024159       -3.3785763352  W2        3645            0.0000000000
     10935      3645  TIP3      H2             29.1921294280       -6.8194324159       -2.1900863352  W2        3645            0.0000000000
     10936      3646  TIP3      OH2            34.8893494280      -14.8335724159      -14.7437063352  W2        3646            0.0000000000
     10937      3646  TIP3      H1             34.3349794280      -15.2297724159      -15.4159563352  W2        3646            0.0000000000
     10938      3646  TIP3      H2             34.9897094280      -13.9230524159      -15.0213763352  W2        3646            0.0000000000
     10939      3647  TIP3      OH2            34.8525494280       -9.0334024159       -1.9065563352  W2        3647            0.0000000000
     10940      3647  TIP3      H1             34.0013994280       -8.7950224159       -2.2739163352  W2        3647            0.0000000000
     10941      3647  TIP3      H2             35.4428894280       -9.0500824159       -2.6598463352  W2        3647            0.0000000000
     10942      3648  TIP3      OH2            33.1845194280       -6.0475324159      -14.2784963352  W2        3648            0.0000000000
     10943      3648  TIP3      H1             32.8116294280       -6.8731524159      -13.9694363352  W2        3648            0.0000000000
     10944      3648  TIP3      H2             33.4618694280       -6.2305924159      -15.1761563352  W2        3648            0.0000000000
     10945      3649  TIP3      OH2            30.3449094280      -11.2395824159       -7.2573063352  W2        3649            0.0000000000
     10946      3649  TIP3      H1             29.4165994280      -11.4713924159       -7.2843763352  W2        3649            0.0000000000
     10947      3649  TIP3      H2             30.7960194280      -12.0166024159       -7.5874263352  W2        3649            0.0000000000
     10948      3650  TIP3      OH2            22.8882194280       -6.9114224159      -11.1244363352  W2        3650            0.0000000000
     10949      3650  TIP3      H1             23.4154394280       -6.1379824159      -11.3245563352  W2        3650            0.0000000000
     10950      3650  TIP3      H2             22.0080694280       -6.6865024159      -11.4260363352  W2        3650            0.0000000000
     10951      3651  TIP3      OH2            18.6429894280      -12.0490124159      -16.5371963352  W2        3651            0.0000000000
     10952      3651  TIP3      H1             19.2589794280      -11.4222924159      -16.1577163352  W2        3651            0.0000000000
     10953      3651  TIP3      H2             17.7812494280      -11.7330324159      -16.2655463352  W2        3651            0.0000000000
     10954      3652  TIP3      OH2            24.3154494280       -9.2484324159      -11.5480063352  W2        3652            0.0000000000
     10955      3652  TIP3      H1             24.0744494280       -8.3229924159      -11.5064763352  W2        3652            0.0000000000
     10956      3652  TIP3      H2             23.5748094280       -9.7073024159      -11.1516163352  W2        3652            0.0000000000
     10957      3653  TIP3      OH2            24.8301094280       -5.0990724159       -5.2328963352  W2        3653            0.0000000000
     10958      3653  TIP3      H1             25.1925794280       -4.2445124159       -5.4664563352  W2        3653            0.0000000000
     10959      3653  TIP3      H2             25.3616294280       -5.3909124159       -4.4922663352  W2        3653            0.0000000000
     10960      3654  TIP3      OH2            22.9985294280       -4.2266724159      -12.0027863352  W2        3654            0.0000000000
     10961      3654  TIP3      H1             22.0485794280       -4.1209324159      -11.9514563352  W2        3654            0.0000000000
     10962      3654  TIP3      H2             23.3503394280       -3.4059324159      -11.6580363352  W2        3654            0.0000000000
     10963      3655  TIP3      OH2            28.3741894280       -9.0000024159       -5.5323363352  W2        3655            0.0000000000
     10964      3655  TIP3      H1             27.9483194280       -9.2278324159       -4.7059363352  W2        3655            0.0000000000
     10965      3655  TIP3      H2             28.9547694280       -9.7388224159       -5.7148063352  W2        3655            0.0000000000
     10966      3656  TIP3      OH2            30.5770794280       -8.0709524159      -16.4584363352  W2        3656            0.0000000000
     10967      3656  TIP3      H1             30.9303894280       -8.4509724159      -15.6540863352  W2        3656            0.0000000000
     10968      3656  TIP3      H2             29.6284294280       -8.1644724159      -16.3715063352  W2        3656            0.0000000000
     10969      3657  TIP3      OH2            31.0326094280       -4.4480524159       -3.0628563352  W2        3657            0.0000000000
     10970      3657  TIP3      H1             30.4309294280       -5.0037624159       -3.5582263352  W2        3657            0.0000000000
     10971      3657  TIP3      H2             31.3139794280       -3.7810724159       -3.6891163352  W2        3657            0.0000000000
     10972      3658  TIP3      OH2            35.0805194280       -3.5917024159      -16.2574163352  W2        3658            0.0000000000
     10973      3658  TIP3      H1             35.8243094280       -3.0056524159      -16.3972563352  W2        3658            0.0000000000
     10974      3658  TIP3      H2             34.3863294280       -3.0231224159      -15.9241763352  W2        3658            0.0000000000
     10975      3659  TIP3      OH2            19.1551994280      -17.2152824159       -3.6555963352  W2        3659            0.0000000000
     10976      3659  TIP3      H1             18.2624294280      -16.8767424159       -3.7231963352  W2        3659            0.0000000000
     10977      3659  TIP3      H2             19.0564794280      -18.0706724159       -3.2375163352  W2        3659            0.0000000000
     10978      3660  TIP3      OH2            31.4430094280       -9.3987524159      -14.2316463352  W2        3660            0.0000000000
     10979      3660  TIP3      H1             31.1657694280      -10.1268224159      -13.6755363352  W2        3660            0.0000000000
     10980      3660  TIP3      H2             32.3703094280       -9.2795524159      -14.0263863352  W2        3660            0.0000000000
     10981      3661  TIP3      OH2            18.8063994280       -5.4108424159       -5.2206563352  W2        3661            0.0000000000
     10982      3661  TIP3      H1             19.0234294280       -6.3426024159       -5.2516863352  W2        3661            0.0000000000
     10983      3661  TIP3      H2             19.0527494280       -5.1363424159       -4.3373763352  W2        3661            0.0000000000
     10984      3662  TIP3      OH2            24.6678594280       -6.9593424159      -18.0114363352  W2        3662            0.0000000000
     10985      3662  TIP3      H1             24.9068394280       -7.7075324159      -18.5585463352  W2        3662            0.0000000000
     10986      3662  TIP3      H2             24.3989894280       -7.3471724159      -17.1786563352  W2        3662            0.0000000000
     10987      3663  TIP3      OH2            23.6049194280       -7.3889624159      -15.5551763352  W2        3663            0.0000000000
     10988      3663  TIP3      H1             23.7517194280       -7.9089824159      -14.7650863352  W2        3663            0.0000000000
     10989      3663  TIP3      H2             23.6020894280       -6.4822024159      -15.2485863352  W2        3663            0.0000000000
     10990      3664  TIP3      OH2            20.0580294280      -10.1366324159      -15.0446363352  W2        3664            0.0000000000
     10991      3664  TIP3      H1             19.3719594280       -9.7843824159      -14.4776663352  W2        3664            0.0000000000
     10992      3664  TIP3      H2             20.5808194280       -9.3736724159      -15.2912063352  W2        3664            0.0000000000
     10993      3665  TIP3      OH2            27.8895394280      -17.4742524159       -4.7657363352  W2        3665            0.0000000000
     10994      3665  TIP3      H1             28.5883294280      -17.4003824159       -4.1157663352  W2        3665            0.0000000000
     10995      3665  TIP3      H2             27.5086794280      -18.3387524159       -4.6114463352  W2        3665            0.0000000000
     10996      3666  TIP3      OH2            28.6740294280      -17.8220824159      -13.6685063352  W2        3666            0.0000000000
     10997      3666  TIP3      H1             28.8938594280      -17.3505424159      -14.4719663352  W2        3666            0.0000000000
     10998      3666  TIP3      H2             29.2324294280      -17.4278224159      -12.9984463352  W2        3666            0.0000000000
     10999      3667  TIP3      OH2            26.3426394280       -5.6916024159      -14.8057563352  W2        3667            0.0000000000
     11000      3667  TIP3      H1             25.5262494280       -5.1946324159      -14.7533263352  W2        3667            0.0000000000
     11001      3667  TIP3      H2             26.8722694280       -5.2162524159      -15.4458763352  W2        3667            0.0000000000
     11002      3668  TIP3      OH2            25.8740194280      -16.0942024159      -12.8336663352  W2        3668            0.0000000000
     11003      3668  TIP3      H1             26.6862794280      -15.5898824159      -12.7874963352  W2        3668            0.0000000000
     11004      3668  TIP3      H2             25.6293194280      -16.2392324159      -11.9197063352  W2        3668            0.0000000000
     11005      3669  TIP3      OH2            26.4096594280      -15.1079324159       -3.6490063352  W2        3669            0.0000000000
     11006      3669  TIP3      H1             26.5286894280      -14.5343924159       -2.8919663352  W2        3669            0.0000000000
     11007      3669  TIP3      H2             27.0651194280      -15.7959924159       -3.5342263352  W2        3669            0.0000000000
     11008      3670  TIP3      OH2            26.7576894280      -19.0129024159      -11.8955563352  W2        3670            0.0000000000
     11009      3670  TIP3      H1             26.4110394280      -18.3958424159      -11.2511263352  W2        3670            0.0000000000
     11010      3670  TIP3      H2             27.4163794280      -18.5123324159      -12.3770063352  W2        3670            0.0000000000
     11011      3671  TIP3      OH2            23.6809494280       -4.6478824159      -14.8240663352  W2        3671            0.0000000000
     11012      3671  TIP3      H1             23.8418194280       -3.8481324159      -15.3248063352  W2        3671            0.0000000000
     11013      3671  TIP3      H2             23.4837294280       -4.3412824159      -13.9390063352  W2        3671            0.0000000000
     11014      3672  TIP3      OH2            22.4153894280      -17.9499624159      -15.2083063352  W2        3672            0.0000000000
     11015      3672  TIP3      H1             22.3318694280      -17.0616524159      -14.8616663352  W2        3672            0.0000000000
     11016      3672  TIP3      H2             23.3054194280      -18.2152924159      -14.9766263352  W2        3672            0.0000000000
     11017      3673  TIP3      OH2            32.6142394280      -17.2009024159       -2.8140363352  W2        3673            0.0000000000
     11018      3673  TIP3      H1             31.6978194280      -16.9387324159       -2.9016663352  W2        3673            0.0000000000
     11019      3673  TIP3      H2             32.9497394280      -17.2040024159       -3.7105063352  W2        3673            0.0000000000
     11020      3674  TIP3      OH2            31.2163394280      -13.4508024159       -8.7183063352  W2        3674            0.0000000000
     11021      3674  TIP3      H1             30.4187794280      -13.8657824159       -9.0468063352  W2        3674            0.0000000000
     11022      3674  TIP3      H2             31.6614494280      -14.1414324159       -8.2272563352  W2        3674            0.0000000000
     11023      3675  TIP3      OH2            20.6739194280       -7.5227424159      -16.1478563352  W2        3675            0.0000000000
     11024      3675  TIP3      H1             21.2660694280       -6.8232624159      -15.8716163352  W2        3675            0.0000000000
     11025      3675  TIP3      H2             21.1332194280       -7.9557924159      -16.8673963352  W2        3675            0.0000000000
     11026      3676  TIP3      OH2            18.9898394280      -14.8584424159      -17.0319163352  W2        3676            0.0000000000
     11027      3676  TIP3      H1             18.9450994280      -13.9191324159      -16.8532163352  W2        3676            0.0000000000
     11028      3676  TIP3      H2             18.1021594280      -15.0939524159      -17.3017063352  W2        3676            0.0000000000
     11029      3677  TIP3      OH2            32.3027994280       -4.1945524159       -7.0959563352  W2        3677            0.0000000000
     11030      3677  TIP3      H1             32.1472294280       -3.5161124159       -7.7530263352  W2        3677            0.0000000000
     11031      3677  TIP3      H2             33.2354394280       -4.1226224159       -6.8928963352  W2        3677            0.0000000000
     11032      3678  TIP3      OH2            19.7980394280      -20.0767824159       -8.3588163352  W2        3678            0.0000000000
     11033      3678  TIP3      H1             19.5690194280      -20.0175324159       -9.2863163352  W2        3678            0.0000000000
     11034      3678  TIP3      H2             19.3553794280      -20.8682324159       -8.0524063352  W2        3678            0.0000000000
     11035      3679  TIP3      OH2            18.7283694280       -6.1360724159      -12.1982363352  W2        3679            0.0000000000
     11036      3679  TIP3      H1             17.8962294280       -5.6638024159      -12.1710963352  W2        3679            0.0000000000
     11037      3679  TIP3      H2             19.2741994280       -5.6263124159      -12.7969263352  W2        3679            0.0000000000
     11038      3680  TIP3      OH2            18.0167394280       -3.5237024159       -0.8684363352  W2        3680            0.0000000000
     11039      3680  TIP3      H1             18.5569594280       -3.7403024159       -0.1085163352  W2        3680            0.0000000000
     11040      3680  TIP3      H2             17.5355394280       -4.3291024159       -1.0581863352  W2        3680            0.0000000000
     11041      3681  TIP3      OH2            22.6140794280       -4.6042624159        0.7519836648  W2        3681            0.0000000000
     11042      3681  TIP3      H1             23.3817994280       -5.0631824159        1.0929036648  W2        3681            0.0000000000
     11043      3681  TIP3      H2             22.5926994280       -4.8302824159       -0.1778963352  W2        3681            0.0000000000
     11044      3682  TIP3      OH2            26.7060394280       -5.0962024159      -17.8728363352  W2        3682            0.0000000000
     11045      3682  TIP3      H1             26.0621394280       -5.7273424159      -17.5514663352  W2        3682            0.0000000000
     11046      3682  TIP3      H2             27.4678694280       -5.6274024159      -18.1044863352  W2        3682            0.0000000000
     11047      3683  TIP3      OH2            29.1909494280       -6.2241524159       -0.5188663352  W2        3683            0.0000000000
     11048      3683  TIP3      H1             28.8398994280       -7.0808524159       -0.2758263352  W2        3683            0.0000000000
     11049      3683  TIP3      H2             29.9172694280       -6.0814824159        0.0880336648  W2        3683            0.0000000000
     11050      3684  TIP3      OH2            31.3103294280       -5.2792124159      -17.6390363352  W2        3684            0.0000000000
     11051      3684  TIP3      H1             31.5933694280       -6.0736924159      -17.1863463352  W2        3684            0.0000000000
     11052      3684  TIP3      H2             32.0501194280       -5.0461124159      -18.1999263352  W2        3684            0.0000000000
     11053      3685  TIP3      OH2            17.9236894280       -9.7132924159        0.0859936648  W2        3685            0.0000000000
     11054      3685  TIP3      H1             18.0677394280      -10.6152224159       -0.2003363352  W2        3685            0.0000000000
     11055      3685  TIP3      H2             17.1514294280       -9.4270824159       -0.4017763352  W2        3685            0.0000000000
     11056      3686  TIP3      OH2            22.2650594280       -9.3697224159      -17.7815463352  W2        3686            0.0000000000
     11057      3686  TIP3      H1             22.3294694280      -10.1637624159      -17.2509063352  W2        3686            0.0000000000
     11058      3686  TIP3      H2             22.9179794280       -9.4884424159      -18.4713463352  W2        3686            0.0000000000
     11059      3687  TIP3      OH2            24.5792994280       -9.7434824159       -0.4813663352  W2        3687            0.0000000000
     11060      3687  TIP3      H1             24.2506794280       -9.4726724159       -1.3386263352  W2        3687            0.0000000000
     11061      3687  TIP3      H2             24.7311194280      -10.6845024159       -0.5688663352  W2        3687            0.0000000000
     11062      3688  TIP3      OH2            27.6173994280       -8.3225524159      -18.0457463352  W2        3688            0.0000000000
     11063      3688  TIP3      H1             27.3488094280       -8.1423424159      -17.1448563352  W2        3688            0.0000000000
     11064      3688  TIP3      H2             27.4109594280       -9.2479324159      -18.1771663352  W2        3688            0.0000000000
     11065      3689  TIP3      OH2            30.3138194280       -9.8277524159       -3.0981363352  W2        3689            0.0000000000
     11066      3689  TIP3      H1             31.0592994280       -9.2393824159       -3.2177363352  W2        3689            0.0000000000
     11067      3689  TIP3      H2             29.5564994280       -9.2457824159       -3.0348263352  W2        3689            0.0000000000
     11068      3690  TIP3      OH2            18.7563394280      -12.5129624159       -0.4940763352  W2        3690            0.0000000000
     11069      3690  TIP3      H1             19.1644594280      -13.3703024159       -0.6150163352  W2        3690            0.0000000000
     11070      3690  TIP3      H2             18.4960994280      -12.4988324159        0.4269536648  W2        3690            0.0000000000
     11071      3691  TIP3      OH2            23.4144394280      -11.3971024159      -15.4757463352  W2        3691            0.0000000000
     11072      3691  TIP3      H1             22.9546394280      -11.8812724159      -14.7898963352  W2        3691            0.0000000000
     11073      3691  TIP3      H2             23.6693094280      -12.0655624159      -16.1116963352  W2        3691            0.0000000000
     11074      3692  TIP3      OH2            22.7033694280      -13.5043924159       -3.1197863352  W2        3692            0.0000000000
     11075      3692  TIP3      H1             22.0849794280      -12.8297324159       -2.8393163352  W2        3692            0.0000000000
     11076      3692  TIP3      H2             23.0474894280      -13.1830024159       -3.9531663352  W2        3692            0.0000000000
     11077      3693  TIP3      OH2            24.4854794280      -13.1539224159      -17.2134263352  W2        3693            0.0000000000
     11078      3693  TIP3      H1             24.3049794280      -13.3088024159      -18.1405963352  W2        3693            0.0000000000
     11079      3693  TIP3      H2             25.4355294280      -13.0460524159      -17.1686363352  W2        3693            0.0000000000
     11080      3694  TIP3      OH2            27.7231894280      -11.0328624159        0.1576936648  W2        3694            0.0000000000
     11081      3694  TIP3      H1             28.6763094280      -10.9489524159        0.1302936648  W2        3694            0.0000000000
     11082      3694  TIP3      H2             27.5626494280      -11.7446824159        0.7771836648  W2        3694            0.0000000000
     11083      3695  TIP3      OH2            33.8753094280      -10.7995024159      -17.7676163352  W2        3695            0.0000000000
     11084      3695  TIP3      H1             33.6017894280      -11.2239524159      -18.5807863352  W2        3695            0.0000000000
     11085      3695  TIP3      H2             33.9147194280       -9.8680524159      -17.9845763352  W2        3695            0.0000000000
     11086      3696  TIP3      OH2            23.0427394280      -16.1493124159       -2.0374763352  W2        3696            0.0000000000
     11087      3696  TIP3      H1             23.1928294280      -16.8781824159       -2.6395063352  W2        3696            0.0000000000
     11088      3696  TIP3      H2             23.0449794280      -15.3721424159       -2.5962563352  W2        3696            0.0000000000
     11089      3697  TIP3      OH2            23.4553094280      -17.7797324159       -4.5447363352  W2        3697            0.0000000000
     11090      3697  TIP3      H1             23.9910594280      -17.3280624159       -5.1968063352  W2        3697            0.0000000000
     11091      3697  TIP3      H2             22.6032694280      -17.8877524159       -4.9673263352  W2        3697            0.0000000000
     11092      3698  TIP3      OH2            25.0371494280      -12.3401124159       -4.3052163352  W2        3698            0.0000000000
     11093      3698  TIP3      H1             25.7876294280      -12.4963624159       -4.8784363352  W2        3698            0.0000000000
     11094      3698  TIP3      H2             24.6979794280      -11.4884524159       -4.5806663352  W2        3698            0.0000000000
     11095      3699  TIP3      OH2            29.4527694280      -14.5249324159        0.7233136648  W2        3699            0.0000000000
     11096      3699  TIP3      H1             29.6448994280      -15.4559924159        0.6117636648  W2        3699            0.0000000000
     11097      3699  TIP3      H2             30.3103994280      -14.0999824159        0.7128536648  W2        3699            0.0000000000
     11098      3700  TIP3      OH2            30.7694894280      -11.7364124159       -1.1994163352  W2        3700            0.0000000000
     11099      3700  TIP3      H1             30.4879894280      -11.0269524159       -1.7770363352  W2        3700            0.0000000000
     11100      3700  TIP3      H2             31.7119194280      -11.8091124159       -1.3502963352  W2        3700            0.0000000000
     11101      3701  TIP3      OH2            21.5213694280      -14.9509624159       -0.1259163352  W2        3701            0.0000000000
     11102      3701  TIP3      H1             20.7542694280      -15.4834824159       -0.3361563352  W2        3701            0.0000000000
     11103      3701  TIP3      H2             22.2002694280      -15.2609224159       -0.7252863352  W2        3701            0.0000000000
     11104      3702  TIP3      OH2            24.2608594280      -20.3231624159       -4.1133763352  W2        3702            0.0000000000
     11105      3702  TIP3      H1             24.1628194280      -19.3768424159       -4.2187563352  W2        3702            0.0000000000
     11106      3702  TIP3      H2             23.5184794280      -20.6957824159       -4.5890263352  W2        3702            0.0000000000
     11107      3703  TIP3      OH2            25.5249094280      -16.0016224159       -0.5495363352  W2        3703            0.0000000000
     11108      3703  TIP3      H1             25.2894494280      -16.2209524159        0.3519536648  W2        3703            0.0000000000
     11109      3703  TIP3      H2             24.7415994280      -16.2085024159       -1.0592863352  W2        3703            0.0000000000
     11110      3704  TIP3      OH2            28.2405694280      -16.8742724159       -1.4741863352  W2        3704            0.0000000000
     11111      3704  TIP3      H1             27.2931094280      -16.8423024159       -1.3418563352  W2        3704            0.0000000000
     11112      3704  TIP3      H2             28.5532394280      -17.4995624159       -0.8203663352  W2        3704            0.0000000000
     11113      3705  TIP3      OH2            29.8747194280      -18.2401624159        0.5310036648  W2        3705            0.0000000000
     11114      3705  TIP3      H1             29.7778994280      -19.1924324159        0.5251936648  W2        3705            0.0000000000
     11115      3705  TIP3      H2             29.5530294280      -17.9714824159        1.3915536648  W2        3705            0.0000000000
     11116      3706  TIP3      OH2            19.7016494280      -17.0305824159       -0.4214463352  W2        3706            0.0000000000
     11117      3706  TIP3      H1             19.9133894280      -17.7369724159       -1.0316963352  W2        3706            0.0000000000
     11118      3706  TIP3      H2             19.5903994280      -17.4679824159        0.4226736648  W2        3706            0.0000000000
     11119      3707  TIP3      OH2            24.4826694280      -21.0294224159       -1.4420963352  W2        3707            0.0000000000
     11120      3707  TIP3      H1             25.1945094280      -21.6692024159       -1.4561863352  W2        3707            0.0000000000
     11121      3707  TIP3      H2             24.3817094280      -20.7625924159       -2.3557863352  W2        3707            0.0000000000
     11122      3708  TIP3      OH2            24.8364194280      -19.3465824159        0.6115336648  W2        3708            0.0000000000
     11123      3708  TIP3      H1             24.7046394280      -19.8222024159       -0.2086163352  W2        3708            0.0000000000
     11124      3708  TIP3      H2             24.2371594280      -18.6022224159        0.5562436648  W2        3708            0.0000000000
     11125      3709  TIP3      OH2            24.3826494280       -2.4635524159      -16.2120663352  W2        3709            0.0000000000
     11126      3709  TIP3      H1             25.3157194280       -2.3056824159      -16.0682263352  W2        3709            0.0000000000
     11127      3709  TIP3      H2             24.1185294280       -1.7882524159      -16.8369163352  W2        3709            0.0000000000
     11128      3710  TIP3      OH2            17.9511394280       -7.8271724159      -16.7292563352  W2        3710            0.0000000000
     11129      3710  TIP3      H1             18.8650594280       -7.7482824159      -16.4558663352  W2        3710            0.0000000000
     11130      3710  TIP3      H2             17.9584494280       -8.5142124159      -17.3956963352  W2        3710            0.0000000000
     11131      3711  TIP3      OH2            16.6001994280       -2.4343224159      -11.6518663352  W2        3711            0.0000000000
     11132      3711  TIP3      H1             15.9529094280       -2.8961524159      -12.1847463352  W2        3711            0.0000000000
     11133      3711  TIP3      H2             16.9546594280       -3.1059924159      -11.0692463352  W2        3711            0.0000000000
     11134      3712  TIP3      OH2            17.4701194280       -4.3536224159       -9.8472463352  W2        3712            0.0000000000
     11135      3712  TIP3      H1             17.1357994280       -5.2338924159       -9.6752263352  W2        3712            0.0000000000
     11136      3712  TIP3      H2             17.6923594280       -4.0081224159       -8.9826863352  W2        3712            0.0000000000
     11137      3713  TIP3      OH2            35.0185994280       -3.5439824159       -6.8667663352  W2        3713            0.0000000000
     11138      3713  TIP3      H1             34.9972694280       -3.3591424159       -5.9278263352  W2        3713            0.0000000000
     11139      3713  TIP3      H2             35.7092194280       -2.9755824159       -7.2076263352  W2        3713            0.0000000000
     11140      3714  TIP3      OH2            34.5818894280       -3.9768724159       -3.9448563352  W2        3714            0.0000000000
     11141      3714  TIP3      H1             34.0947594280       -4.7124624159       -4.3161163352  W2        3714            0.0000000000
     11142      3714  TIP3      H2             35.1311594280       -4.3704824159       -3.2669163352  W2        3714            0.0000000000
     11143      3715  TIP3      OH2            33.0326194280       -8.1870624159        0.6931736648  W2        3715            0.0000000000
     11144      3715  TIP3      H1             32.1667294280       -8.2920924159        1.0874036648  W2        3715            0.0000000000
     11145      3715  TIP3      H2             33.4092094280       -7.4287324159        1.1396436648  W2        3715            0.0000000000
     11146      3716  TIP3      OH2            34.3335894280       -9.9306924159      -13.7925763352  W2        3716            0.0000000000
     11147      3716  TIP3      H1             35.1837294280       -9.5096024159      -13.6654163352  W2        3716            0.0000000000
     11148      3716  TIP3      H2             34.3390994280      -10.6706824159      -13.1854363352  W2        3716            0.0000000000
     11149      3717  TIP3      OH2            34.7281494280      -11.8769524159      -11.9690063352  W2        3717            0.0000000000
     11150      3717  TIP3      H1             34.0016094280      -12.3566924159      -11.5712463352  W2        3717            0.0000000000
     11151      3717  TIP3      H2             35.3094794280      -11.6714824159      -11.2368463352  W2        3717            0.0000000000
     11152      3718  TIP3      OH2            34.4872694280       -9.0922024159       -7.0212463352  W2        3718            0.0000000000
     11153      3718  TIP3      H1             35.3206894280       -9.4702024159       -7.3018863352  W2        3718            0.0000000000
     11154      3718  TIP3      H2             34.5992994280       -8.1490824159       -7.1403363352  W2        3718            0.0000000000
     11155      3719  TIP3      OH2            32.9734994280       -6.2144524159       -4.7144063352  W2        3719            0.0000000000
     11156      3719  TIP3      H1             32.3260294280       -5.8893024159       -4.0888863352  W2        3719            0.0000000000
     11157      3719  TIP3      H2             32.4558994280       -6.6546824159       -5.3885763352  W2        3719            0.0000000000
     11158      3720  TIP3      OH2            34.9964594280      -11.9761024159      -15.5778763352  W2        3720            0.0000000000
     11159      3720  TIP3      H1             34.4745694280      -11.6196924159      -16.2967863352  W2        3720            0.0000000000
     11160      3720  TIP3      H2             34.9633794280      -11.3013224159      -14.8997863352  W2        3720            0.0000000000
     11161      3721  TIP3      OH2            33.3453594280      -14.7365424159      -17.0271663352  W2        3721            0.0000000000
     11162      3721  TIP3      H1             33.4417994280      -14.0698424159      -17.7071963352  W2        3721            0.0000000000
     11163      3721  TIP3      H2             33.2053194280      -15.5519124159      -17.5086163352  W2        3721            0.0000000000
     11164      3722  TIP3      OH2            32.5148294280      -13.3563024159      -11.4061363352  W2        3722            0.0000000000
     11165      3722  TIP3      H1             32.3647094280      -14.3014424159      -11.4263563352  W2        3722            0.0000000000
     11166      3722  TIP3      H2             32.1612794280      -13.0751624159      -10.5622263352  W2        3722            0.0000000000
     11167      3723  TIP3      OH2            17.5500694280      -11.2780824159       -7.3957563352  W2        3723            0.0000000000
     11168      3723  TIP3      H1             17.7343594280      -11.3599124159       -8.3314663352  W2        3723            0.0000000000
     11169      3723  TIP3      H2             18.3993594280      -11.4023824159       -6.9721163352  W2        3723            0.0000000000
     11170      3724  TIP3      OH2            33.3711194280      -11.3859724159       -1.7673063352  W2        3724            0.0000000000
     11171      3724  TIP3      H1             33.9538494280      -12.1207424159       -1.5755863352  W2        3724            0.0000000000
     11172      3724  TIP3      H2             33.9350494280      -10.6139424159       -1.7207263352  W2        3724            0.0000000000
     11173      3725  TIP3      OH2            34.8678294280      -13.4833924159       -1.0827663352  W2        3725            0.0000000000
     11174      3725  TIP3      H1             34.0044994280      -13.8621824159       -1.2482963352  W2        3725            0.0000000000
     11175      3725  TIP3      H2             35.4721994280      -14.2219124159       -1.1571863352  W2        3725            0.0000000000
     11176      3726  TIP3      OH2            32.5927394280      -17.3285624159      -17.9096163352  W2        3726            0.0000000000
     11177      3726  TIP3      H1             33.2033194280      -17.6998824159      -17.2727963352  W2        3726            0.0000000000
     11178      3726  TIP3      H2             31.7558894280      -17.7498724159      -17.7136163352  W2        3726            0.0000000000
     11179      3727  TIP3      OH2            32.2253094280      -15.7737224159      -12.9436263352  W2        3727            0.0000000000
     11180      3727  TIP3      H1             32.5050194280      -16.6806824159      -12.8194563352  W2        3727            0.0000000000
     11181      3727  TIP3      H2             32.9844794280      -15.3395724159      -13.3327063352  W2        3727            0.0000000000
     11182      3728  TIP3      OH2            32.8371394280      -15.1919824159       -7.5077363352  W2        3728            0.0000000000
     11183      3728  TIP3      H1             33.7699394280      -14.9799924159       -7.5421363352  W2        3728            0.0000000000
     11184      3728  TIP3      H2             32.6018894280      -15.0907724159       -6.5854363352  W2        3728            0.0000000000
     11185      3729  TIP3      OH2            32.8663294280      -14.4554524159       -4.7317963352  W2        3729            0.0000000000
     11186      3729  TIP3      H1             32.0234594280      -14.1874124159       -4.3658163352  W2        3729            0.0000000000
     11187      3729  TIP3      H2             33.3087594280      -13.6332624159       -4.9426863352  W2        3729            0.0000000000
     11188      3730  TIP3      OH2            17.1475494280      -16.0075824159       -1.2548763352  W2        3730            0.0000000000
     11189      3730  TIP3      H1             18.0670394280      -16.1297524159       -1.0185663352  W2        3730            0.0000000000
     11190      3730  TIP3      H2             16.6979994280      -16.7576124159       -0.8655263352  W2        3730            0.0000000000
     11191      3731  TIP3      OH2            35.1494894280      -20.4754324159        0.6217036648  W2        3731            0.0000000000
     11192      3731  TIP3      H1             35.4991894280      -21.1290824159        0.0161736648  W2        3731            0.0000000000
     11193      3731  TIP3      H2             35.2964394280      -19.6380224159        0.1819636648  W2        3731            0.0000000000
     11194      3732  TIP3      OH2            32.8387894280      -18.5107924159      -12.8954263352  W2        3732            0.0000000000
     11195      3732  TIP3      H1             33.0212894280      -18.9596424159      -12.0699263352  W2        3732            0.0000000000
     11196      3732  TIP3      H2             32.2390794280      -19.0953524159      -13.3589663352  W2        3732            0.0000000000
     11197      3733  TIP3      OH2            18.3687994280      -17.6954224159       -8.3635863352  W2        3733            0.0000000000
     11198      3733  TIP3      H1             18.8139594280      -18.4871724159       -8.0616163352  W2        3733            0.0000000000
     11199      3733  TIP3      H2             18.8350994280      -16.9789024159       -7.9330263352  W2        3733            0.0000000000
     11200      3734  TIP3      OH2            16.6728294280      -14.6961224159       -7.2945663352  W2        3734            0.0000000000
     11201      3734  TIP3      H1             17.1648094280      -14.9170724159       -8.0853663352  W2        3734            0.0000000000
     11202      3734  TIP3      H2             17.0349194280      -13.8557824159       -7.0136163352  W2        3734            0.0000000000
     11203      3735  TIP3      OH2            34.6692094280      -18.3659724159       -1.0291663352  W2        3735            0.0000000000
     11204      3735  TIP3      H1             33.7517794280      -18.0952624159       -1.0648163352  W2        3735            0.0000000000
     11205      3735  TIP3      H2             34.7921494280      -18.9011324159       -1.8131963352  W2        3735            0.0000000000
     11206      3736  TIP3      OH2            34.7054094280      -18.4429824159      -16.3673963352  W2        3736            0.0000000000
     11207      3736  TIP3      H1             35.1176694280      -19.1644124159      -16.8425963352  W2        3736            0.0000000000
     11208      3736  TIP3      H2             35.3870594280      -17.7735224159      -16.3089663352  W2        3736            0.0000000000
     11209      3737  TIP3      OH2            16.9864794280      -18.4382124159      -13.2403263352  W2        3737            0.0000000000
     11210      3737  TIP3      H1             16.0613194280      -18.2295524159      -13.3697763352  W2        3737            0.0000000000
     11211      3737  TIP3      H2             17.4404694280      -17.9541324159      -13.9300963352  W2        3737            0.0000000000
     11212      3738  TIP3      OH2            31.7571994280       -3.4540424159      -11.2945863352  W2        3738            0.0000000000
     11213      3738  TIP3      H1             32.4094894280       -3.8018324159      -11.9026763352  W2        3738            0.0000000000
     11214      3738  TIP3      H2             32.2675794280       -2.9657224159      -10.6486163352  W2        3738            0.0000000000
     11215      3739  TIP3      OH2            16.9500194280      -19.7003124159       -4.8960763352  W2        3739            0.0000000000
     11216      3739  TIP3      H1             16.2850694280      -19.9462824159       -4.2529863352  W2        3739            0.0000000000
     11217      3739  TIP3      H2             16.5071494280      -19.0782724159       -5.4732763352  W2        3739            0.0000000000
     11218      3740  TIP3      OH2            19.1419494280       -6.5249024159       -0.7514963352  W2        3740            0.0000000000
     11219      3740  TIP3      H1             18.3211994280       -6.3502524159       -1.2120263352  W2        3740            0.0000000000
     11220      3740  TIP3      H2             18.8897294280       -6.5984324159        0.1689436648  W2        3740            0.0000000000
     11221      3741  TIP3      OH2            22.0962394280       -5.5507824159       -4.4930963352  W2        3741            0.0000000000
     11222      3741  TIP3      H1             21.6713494280       -4.7409324159       -4.7756363352  W2        3741            0.0000000000
     11223      3741  TIP3      H2             23.0005194280       -5.4653724159       -4.7951163352  W2        3741            0.0000000000
     11224      3742  TIP3      OH2            26.4073794280       -4.1517824159       -1.5337263352  W2        3742            0.0000000000
     11225      3742  TIP3      H1             26.5921294280       -4.4851724159       -0.6556963352  W2        3742            0.0000000000
     11226      3742  TIP3      H2             27.2538294280       -3.8419224159       -1.8558063352  W2        3742            0.0000000000
     11227      3743  TIP3      OH2            28.7524194280       -2.8658924159       -2.2895863352  W2        3743            0.0000000000
     11228      3743  TIP3      H1             29.4293094280       -3.4986624159       -2.5296663352  W2        3743            0.0000000000
     11229      3743  TIP3      H2             29.0742994280       -2.4648424159       -1.4822563352  W2        3743            0.0000000000
     11230      3744  TIP3      OH2            33.6697994280      -20.2763424159       -3.2100863352  W2        3744            0.0000000000
     11231      3744  TIP3      H1             32.8571494280      -19.9513124159       -3.5976163352  W2        3744            0.0000000000
     11232      3744  TIP3      H2             33.9026494280      -21.0364924159       -3.7431763352  W2        3744            0.0000000000
     11233      3745  TIP3      OH2            19.4979094280       -2.2943924159       -4.4455663352  W2        3745            0.0000000000
     11234      3745  TIP3      H1             18.7775494280       -1.8542924159       -4.8967963352  W2        3745            0.0000000000
     11235      3745  TIP3      H2             19.1323094280       -2.5449224159       -3.5971663352  W2        3745            0.0000000000
     11236      3746  TIP3      OH2            21.9651694280       -2.6940024159       -5.4158463352  W2        3746            0.0000000000
     11237      3746  TIP3      H1             21.1003894280       -2.6221524159       -5.0118363352  W2        3746            0.0000000000
     11238      3746  TIP3      H2             21.9100694280       -2.1472724159       -6.1995963352  W2        3746            0.0000000000
     11239      3747  TIP3      OH2            26.6757294280       -2.8061124159       -6.2402463352  W2        3747            0.0000000000
     11240      3747  TIP3      H1             26.2191294280       -2.2771424159       -6.8944063352  W2        3747            0.0000000000
     11241      3747  TIP3      H2             26.8385294280       -2.2029724159       -5.5150163352  W2        3747            0.0000000000
     11242      3748  TIP3      OH2            29.0033594280       -3.9281524159       -5.2952163352  W2        3748            0.0000000000
     11243      3748  TIP3      H1             28.0987294280       -3.7631324159       -5.5610063352  W2        3748            0.0000000000
     11244      3748  TIP3      H2             29.4322194280       -3.0749324159       -5.3608763352  W2        3748            0.0000000000
     11245      3749  TIP3      OH2            31.6075494280       -2.3582424159       -5.0004363352  W2        3749            0.0000000000
     11246      3749  TIP3      H1             31.4257494280       -1.4423524159       -5.2109463352  W2        3749            0.0000000000
     11247      3749  TIP3      H2             31.7843294280       -2.7685324159       -5.8469763352  W2        3749            0.0000000000
     11248      3750  TIP3      OH2            18.9127194280       -3.6711424159       -7.5353863352  W2        3750            0.0000000000
     11249      3750  TIP3      H1             18.8943194280       -4.0966324159       -6.6781563352  W2        3750            0.0000000000
     11250      3750  TIP3      H2             19.7175094280       -3.9896424159       -7.9441663352  W2        3750            0.0000000000
     11251      3751  TIP3      OH2            21.0540294280       -4.9612724159       -8.8803963352  W2        3751            0.0000000000
     11252      3751  TIP3      H1             20.8350994280       -5.8775324159       -8.7107963352  W2        3751            0.0000000000
     11253      3751  TIP3      H2             21.8782494280       -4.8212324159       -8.4142563352  W2        3751            0.0000000000
     11254      3752  TIP3      OH2            23.5912794280       -4.4913424159       -8.0315963352  W2        3752            0.0000000000
     11255      3752  TIP3      H1             23.8038494280       -5.3794424159       -8.3185063352  W2        3752            0.0000000000
     11256      3752  TIP3      H2             23.6557894280       -4.5255724159       -7.0771963352  W2        3752            0.0000000000
     11257      3753  TIP3      OH2            27.0996494280      -18.8272824159       -8.8872663352  W2        3753            0.0000000000
     11258      3753  TIP3      H1             26.4253294280      -19.4567224159       -8.6316863352  W2        3753            0.0000000000
     11259      3753  TIP3      H2             27.6635694280      -19.3113924159       -9.4904763352  W2        3753            0.0000000000
     11260      3754  TIP3      OH2            32.2423694280      -20.7198824159       -8.7745563352  W2        3754            0.0000000000
     11261      3754  TIP3      H1             32.8461294280      -20.1723424159       -9.2764563352  W2        3754            0.0000000000
     11262      3754  TIP3      H2             31.3725694280      -20.4008424159       -9.0151463352  W2        3754            0.0000000000
     11263      3755  TIP3      OH2            33.9694094280      -19.5810124159      -10.4414663352  W2        3755            0.0000000000
     11264      3755  TIP3      H1             34.5811594280      -20.0954424159      -10.9681063352  W2        3755            0.0000000000
     11265      3755  TIP3      H2             34.3517494280      -18.7038024159      -10.4180263352  W2        3755            0.0000000000
     11266      3756  TIP3      OH2            19.4263994280      -20.1932524159      -11.0652763352  W2        3756            0.0000000000
     11267      3756  TIP3      H1             18.6493794280      -20.4277624159      -11.5726863352  W2        3756            0.0000000000
     11268      3756  TIP3      H2             19.9567594280      -20.9900424159      -11.0564763352  W2        3756            0.0000000000
     11269      3757  TIP3      OH2            18.2627394280      -20.3954424159      -15.2616663352  W2        3757            0.0000000000
     11270      3757  TIP3      H1             18.7018094280      -19.7843924159      -15.8533163352  W2        3757            0.0000000000
     11271      3757  TIP3      H2             17.6289794280      -19.8570324159      -14.7876663352  W2        3757            0.0000000000
     11272      3758  TIP3      OH2            24.0056594280      -20.2665424159      -11.2519663352  W2        3758            0.0000000000
     11273      3758  TIP3      H1             24.8799994280      -19.8781124159      -11.2815363352  W2        3758            0.0000000000
     11274      3758  TIP3      H2             23.8697394280      -20.4817624159      -10.3292463352  W2        3758            0.0000000000
     11275      3759  TIP3      OH2            29.5624994280      -20.2365624159       -9.6027963352  W2        3759            0.0000000000
     11276      3759  TIP3      H1             29.6386594280      -20.1414024159      -10.5521963352  W2        3759            0.0000000000
     11277      3759  TIP3      H2             29.2874194280      -21.1442724159       -9.4738863352  W2        3759            0.0000000000
     11278      3760  TIP3      OH2            30.9157594280      -20.2107824159      -13.9102963352  W2        3760            0.0000000000
     11279      3760  TIP3      H1             30.2128694280      -19.5958624159      -14.1201563352  W2        3760            0.0000000000
     11280      3760  TIP3      H2             30.4708994280      -21.0481124159      -13.7792063352  W2        3760            0.0000000000
     11281      3761  TIP3      OH2            18.1636894280       -4.4472224159      -14.3641563352  W2        3761            0.0000000000
     11282      3761  TIP3      H1             17.4786794280       -4.4853324159      -15.0316463352  W2        3761            0.0000000000
     11283      3761  TIP3      H2             18.1674094280       -3.5344624159      -14.0759463352  W2        3761            0.0000000000
     11284      3762  TIP3      OH2            20.1236494280      -18.4792924159      -16.8192563352  W2        3762            0.0000000000
     11285      3762  TIP3      H1             20.6149894280      -19.1090524159      -17.3467063352  W2        3762            0.0000000000
     11286      3762  TIP3      H2             20.7472794280      -18.1833524159      -16.1561363352  W2        3762            0.0000000000
     11287      3763  TIP3      OH2            25.1496594280      -18.1861424159      -14.3622063352  W2        3763            0.0000000000
     11288      3763  TIP3      H1             25.3277894280      -18.8328224159      -13.6793463352  W2        3763            0.0000000000
     11289      3763  TIP3      H2             25.0962794280      -17.3523724159      -13.8950963352  W2        3763            0.0000000000
     11290      3764  TIP3      OH2            27.0280394280       -3.2377324159      -15.9665363352  W2        3764            0.0000000000
     11291      3764  TIP3      H1             27.8940594280       -2.8709924159      -16.1447163352  W2        3764            0.0000000000
     11292      3764  TIP3      H2             26.7813194280       -3.6769324159      -16.7804563352  W2        3764            0.0000000000
     11293      3765  TIP3      OH2            33.7369994280       -3.6747024159      -13.2874263352  W2        3765            0.0000000000
     11294      3765  TIP3      H1             33.5427094280       -4.4224924159      -13.8524663352  W2        3765            0.0000000000
     11295      3765  TIP3      H2             33.6980094280       -2.9166924159      -13.8706363352  W2        3765            0.0000000000
     11296      3766  TIP3      OH2            19.3841994280      -19.6790624159       -1.5476563352  W2        3766            0.0000000000
     11297      3766  TIP3      H1             19.0180194280      -20.4448024159       -1.1051863352  W2        3766            0.0000000000
     11298      3766  TIP3      H2             20.2970494280      -19.6500424159       -1.2611463352  W2        3766            0.0000000000
     11299      3767  TIP3      OH2            21.3572794280      -20.3286224159       -0.0119463352  W2        3767            0.0000000000
     11300      3767  TIP3      H1             22.2556394280      -20.6026024159       -0.1966063352  W2        3767            0.0000000000
     11301      3767  TIP3      H2             20.9705894280      -21.0710224159        0.4523136648  W2        3767            0.0000000000
     11302      3768  TIP3      OH2            19.9818094280       -3.5271424159      -17.3389463352  W2        3768            0.0000000000
     11303      3768  TIP3      H1             19.7142694280       -3.2408524159      -16.4656363352  W2        3768            0.0000000000
     11304      3768  TIP3      H2             20.7530694280       -4.0732224159      -17.1866963352  W2        3768            0.0000000000
     11305      3769  TIP3      OH2            29.7785094280      -20.9960924159        0.1703336648  W2        3769            0.0000000000
     11306      3769  TIP3      H1             29.8552294280      -21.4220224159        1.0241036648  W2        3769            0.0000000000
     11307      3769  TIP3      H2             30.6721694280      -20.9826224159       -0.1723163352  W2        3769            0.0000000000
     11308      3770  TIP3      OH2            32.9546194280       -4.9234624159       -1.1372463352  W2        3770            0.0000000000
     11309      3770  TIP3      H1             32.1728094280       -5.1096624159       -1.6571863352  W2        3770            0.0000000000
     11310      3770  TIP3      H2             32.8826094280       -3.9940324159       -0.9199963352  W2        3770            0.0000000000
     11311      3771  TIP3      OH2            47.3606594280      -11.0370224159      -11.1065263352  W2        3771            0.0000000000
     11312      3771  TIP3      H1             47.4497694280      -10.0932024159      -11.2388163352  W2        3771            0.0000000000
     11313      3771  TIP3      H2             46.7224194280      -11.3123824159      -11.7645863352  W2        3771            0.0000000000
     11314      3772  TIP3      OH2            46.2937894280      -11.7819524159       -7.6877063352  W2        3772            0.0000000000
     11315      3772  TIP3      H1             46.2555394280      -12.4283224159       -6.9827463352  W2        3772            0.0000000000
     11316      3772  TIP3      H2             45.9714394280      -12.2485124159       -8.4588363352  W2        3772            0.0000000000
     11317      3773  TIP3      OH2            38.6622894280      -12.1677424159       -6.0947163352  W2        3773            0.0000000000
     11318      3773  TIP3      H1             38.7034994280      -12.7934124159       -5.3714763352  W2        3773            0.0000000000
     11319      3773  TIP3      H2             39.3650594280      -11.5438824159       -5.9126763352  W2        3773            0.0000000000
     11320      3774  TIP3      OH2            49.9998094280       -8.8429124159       -9.3861963352  W2        3774            0.0000000000
     11321      3774  TIP3      H1             49.5590794280       -9.5633124159       -8.9356363352  W2        3774            0.0000000000
     11322      3774  TIP3      H2             49.9867794280       -8.1221924159       -8.7564263352  W2        3774            0.0000000000
     11323      3775  TIP3      OH2            39.5855994280       -7.7178524159       -7.5598063352  W2        3775            0.0000000000
     11324      3775  TIP3      H1             39.2161194280       -8.5198024159       -7.9293763352  W2        3775            0.0000000000
     11325      3775  TIP3      H2             40.5267094280       -7.8863624159       -7.5134663352  W2        3775            0.0000000000
     11326      3776  TIP3      OH2            36.1956494280      -14.0575924159      -12.1669263352  W2        3776            0.0000000000
     11327      3776  TIP3      H1             35.7479894280      -13.2117224159      -12.1852763352  W2        3776            0.0000000000
     11328      3776  TIP3      H2             35.6347694280      -14.6371724159      -12.6824163352  W2        3776            0.0000000000
     11329      3777  TIP3      OH2            36.9062594280      -11.8956324159      -10.0411263352  W2        3777            0.0000000000
     11330      3777  TIP3      H1             37.1196094280      -12.6654724159       -9.5138263352  W2        3777            0.0000000000
     11331      3777  TIP3      H2             37.6440194280      -11.8059624159      -10.6443663352  W2        3777            0.0000000000
     11332      3778  TIP3      OH2            47.1113594280       -3.7387424159       -9.1741563352  W2        3778            0.0000000000
     11333      3778  TIP3      H1             47.7309994280       -4.4152724159       -9.4472363352  W2        3778            0.0000000000
     11334      3778  TIP3      H2             46.9030994280       -3.9566624159       -8.2656663352  W2        3778            0.0000000000
     11335      3779  TIP3      OH2            44.6832294280       -9.3498124159       -7.2816063352  W2        3779            0.0000000000
     11336      3779  TIP3      H1             44.9870194280      -10.0356724159       -7.8761963352  W2        3779            0.0000000000
     11337      3779  TIP3      H2             45.4046294280       -9.2309424159       -6.6638063352  W2        3779            0.0000000000
     11338      3780  TIP3      OH2            53.3462094280      -17.7482824159       -6.4209863352  W2        3780            0.0000000000
     11339      3780  TIP3      H1             53.3954294280      -17.1381624159       -5.6850763352  W2        3780            0.0000000000
     11340      3780  TIP3      H2             53.7717194280      -17.2871924159       -7.1438763352  W2        3780            0.0000000000
     11341      3781  TIP3      OH2            47.8239294280      -14.9555724159       -6.9541263352  W2        3781            0.0000000000
     11342      3781  TIP3      H1             47.9665194280      -15.9018724159       -6.9339663352  W2        3781            0.0000000000
     11343      3781  TIP3      H2             47.7178294280      -14.7485924159       -7.8826363352  W2        3781            0.0000000000
     11344      3782  TIP3      OH2            40.9787594280      -16.8539324159       -9.6816463352  W2        3782            0.0000000000
     11345      3782  TIP3      H1             41.0218694280      -15.9940824159      -10.1000163352  W2        3782            0.0000000000
     11346      3782  TIP3      H2             40.5211694280      -17.4064624159      -10.3153263352  W2        3782            0.0000000000
     11347      3783  TIP3      OH2            48.7010294280      -16.7233724159      -11.2808163352  W2        3783            0.0000000000
     11348      3783  TIP3      H1             49.3474594280      -17.0520524159      -10.6560563352  W2        3783            0.0000000000
     11349      3783  TIP3      H2             49.2109694280      -16.2054724159      -11.9036763352  W2        3783            0.0000000000
     11350      3784  TIP3      OH2            37.5989094280      -14.4573524159       -8.9195063352  W2        3784            0.0000000000
     11351      3784  TIP3      H1             38.2525694280      -15.0071824159       -8.4874963352  W2        3784            0.0000000000
     11352      3784  TIP3      H2             37.6228394280      -14.7314524159       -9.8363063352  W2        3784            0.0000000000
     11353      3785  TIP3      OH2            42.7553594280      -12.9072224159       -9.7043563352  W2        3785            0.0000000000
     11354      3785  TIP3      H1             43.3714594280      -13.4336824159       -9.1949563352  W2        3785            0.0000000000
     11355      3785  TIP3      H2             42.1692394280      -13.5473524159      -10.1079963352  W2        3785            0.0000000000
     11356      3786  TIP3      OH2            53.7376694280      -16.2703624159       -4.1850063352  W2        3786            0.0000000000
     11357      3786  TIP3      H1             53.0491294280      -15.6122924159       -4.2803463352  W2        3786            0.0000000000
     11358      3786  TIP3      H2             53.7531294280      -16.4675724159       -3.2484663352  W2        3786            0.0000000000
     11359      3787  TIP3      OH2            39.7889494280      -17.9360924159       -5.6075663352  W2        3787            0.0000000000
     11360      3787  TIP3      H1             39.5701194280      -17.4060324159       -6.3739663352  W2        3787            0.0000000000
     11361      3787  TIP3      H2             39.1210394280      -17.7095424159       -4.9604263352  W2        3787            0.0000000000
     11362      3788  TIP3      OH2            47.1579294280       -8.4359824159      -12.0636563352  W2        3788            0.0000000000
     11363      3788  TIP3      H1             46.8624394280       -8.7587524159      -12.9149663352  W2        3788            0.0000000000
     11364      3788  TIP3      H2             46.8337094280       -7.5363124159      -12.0223963352  W2        3788            0.0000000000
     11365      3789  TIP3      OH2            42.3580894280      -10.2605224159       -5.3201963352  W2        3789            0.0000000000
     11366      3789  TIP3      H1             41.6179994280       -9.6623724159       -5.2166763352  W2        3789            0.0000000000
     11367      3789  TIP3      H2             43.0720394280       -9.7065624159       -5.6358363352  W2        3789            0.0000000000
     11368      3790  TIP3      OH2            50.4648694280      -17.4324424159       -9.3002263352  W2        3790            0.0000000000
     11369      3790  TIP3      H1             50.2496694280      -18.1981024159       -8.7676263352  W2        3790            0.0000000000
     11370      3790  TIP3      H2             51.1206094280      -16.9599824159       -8.7873763352  W2        3790            0.0000000000
     11371      3791  TIP3      OH2            39.3826794280      -16.0439124159       -7.6553463352  W2        3791            0.0000000000
     11372      3791  TIP3      H1             39.9963094280      -15.4111524159       -7.2821063352  W2        3791            0.0000000000
     11373      3791  TIP3      H2             39.8947494280      -16.5164124159       -8.3116563352  W2        3791            0.0000000000
     11374      3792  TIP3      OH2            40.7655194280       -8.2962224159       -4.5330463352  W2        3792            0.0000000000
     11375      3792  TIP3      H1             40.7602794280       -7.4168724159       -4.9111163352  W2        3792            0.0000000000
     11376      3792  TIP3      H2             39.9119294280       -8.3798124159       -4.1080563352  W2        3792            0.0000000000
     11377      3793  TIP3      OH2            36.8866094280       -8.6254324159      -13.7511163352  W2        3793            0.0000000000
     11378      3793  TIP3      H1             36.6146994280       -8.3963324159      -14.6398263352  W2        3793            0.0000000000
     11379      3793  TIP3      H2             36.9321794280       -7.7875524159      -13.2905863352  W2        3793            0.0000000000
     11380      3794  TIP3      OH2            50.5115794280       -7.0038424159       -7.0382663352  W2        3794            0.0000000000
     11381      3794  TIP3      H1             49.5699494280       -6.9454524159       -6.8765763352  W2        3794            0.0000000000
     11382      3794  TIP3      H2             50.7881894280       -6.0977924159       -7.1752963352  W2        3794            0.0000000000
     11383      3795  TIP3      OH2            50.8122794280      -18.7173124159       -5.6208763352  W2        3795            0.0000000000
     11384      3795  TIP3      H1             50.0761994280      -18.1066024159       -5.6587463352  W2        3795            0.0000000000
     11385      3795  TIP3      H2             51.4956794280      -18.3024124159       -6.1472363352  W2        3795            0.0000000000
     11386      3796  TIP3      OH2            43.8154194280      -20.6305824159       -8.1550763352  W2        3796            0.0000000000
     11387      3796  TIP3      H1             43.6978394280      -21.5789824159       -8.2092463352  W2        3796            0.0000000000
     11388      3796  TIP3      H2             42.9604294280      -20.2979724159       -7.8819663352  W2        3796            0.0000000000
     11389      3797  TIP3      OH2            48.7636994280       -5.2224924159      -10.4131063352  W2        3797            0.0000000000
     11390      3797  TIP3      H1             49.1889294280       -5.9297024159      -10.8981463352  W2        3797            0.0000000000
     11391      3797  TIP3      H2             49.0806994280       -4.4212224159      -10.8298863352  W2        3797            0.0000000000
     11392      3798  TIP3      OH2            49.9233494280       -7.3216424159      -11.9044463352  W2        3798            0.0000000000
     11393      3798  TIP3      H1             49.6658294280       -8.0116324159      -12.5158563352  W2        3798            0.0000000000
     11394      3798  TIP3      H2             49.9944294280       -7.7645224159      -11.0588563352  W2        3798            0.0000000000
     11395      3799  TIP3      OH2            51.6093694280       -8.7549724159       -3.4270963352  W2        3799            0.0000000000
     11396      3799  TIP3      H1             51.7489994280       -9.3467224159       -4.1663963352  W2        3799            0.0000000000
     11397      3799  TIP3      H2             51.7766494280       -7.8823824159       -3.7832163352  W2        3799            0.0000000000
     11398      3800  TIP3      OH2            46.0819094280      -11.7930224159      -13.6544963352  W2        3800            0.0000000000
     11399      3800  TIP3      H1             45.3704594280      -11.2580524159      -14.0064463352  W2        3800            0.0000000000
     11400      3800  TIP3      H2             46.7728694280      -11.7378124159      -14.3146063352  W2        3800            0.0000000000
     11401      3801  TIP3      OH2            46.1358294280      -13.3355924159      -16.6159963352  W2        3801            0.0000000000
     11402      3801  TIP3      H1             46.8368194280      -13.3129024159      -15.9645963352  W2        3801            0.0000000000
     11403      3801  TIP3      H2             46.4381194280      -13.9636224159      -17.2720663352  W2        3801            0.0000000000
     11404      3802  TIP3      OH2            53.4512994280      -12.4151724159       -5.3610563352  W2        3802            0.0000000000
     11405      3802  TIP3      H1             52.7987094280      -11.7206124159       -5.2719663352  W2        3802            0.0000000000
     11406      3802  TIP3      H2             53.9163294280      -12.2050824159       -6.1708963352  W2        3802            0.0000000000
     11407      3803  TIP3      OH2            49.4876794280      -11.5836924159      -12.7029063352  W2        3803            0.0000000000
     11408      3803  TIP3      H1             48.7557794280      -11.3553224159      -12.1298463352  W2        3803            0.0000000000
     11409      3803  TIP3      H2             49.9348994280      -12.2974224159      -12.2481563352  W2        3803            0.0000000000
     11410      3804  TIP3      OH2            49.3850294280      -13.4094324159       -3.6352063352  W2        3804            0.0000000000
     11411      3804  TIP3      H1             49.4649394280      -12.6459924159       -3.0633563352  W2        3804            0.0000000000
     11412      3804  TIP3      H2             48.7837994280      -13.1301924159       -4.3256963352  W2        3804            0.0000000000
     11413      3805  TIP3      OH2            41.1330494280      -10.9530724159      -10.8204063352  W2        3805            0.0000000000
     11414      3805  TIP3      H1             40.8025694280      -11.3237324159      -11.6387063352  W2        3805            0.0000000000
     11415      3805  TIP3      H2             41.7214594280      -11.6236724159      -10.4735763352  W2        3805            0.0000000000
     11416      3806  TIP3      OH2            42.4997994280       -7.5250124159       -8.1391863352  W2        3806            0.0000000000
     11417      3806  TIP3      H1             42.4049294280       -8.1037024159       -8.8957263352  W2        3806            0.0000000000
     11418      3806  TIP3      H2             43.2291594280       -7.8964424159       -7.6429063352  W2        3806            0.0000000000
     11419      3807  TIP3      OH2            41.4995994280      -12.1845124159       -7.1869063352  W2        3807            0.0000000000
     11420      3807  TIP3      H1             42.0648494280      -12.0630924159       -7.9497863352  W2        3807            0.0000000000
     11421      3807  TIP3      H2             41.8184894280      -11.5470124159       -6.5480563352  W2        3807            0.0000000000
     11422      3808  TIP3      OH2            47.8088194280       -6.6813224159       -6.4528563352  W2        3808            0.0000000000
     11423      3808  TIP3      H1             47.5684794280       -6.0190124159       -5.8049363352  W2        3808            0.0000000000
     11424      3808  TIP3      H2             47.6106394280       -7.5158024159       -6.0278963352  W2        3808            0.0000000000
     11425      3809  TIP3      OH2            42.3796694280       -7.7852424159       -2.4697163352  W2        3809            0.0000000000
     11426      3809  TIP3      H1             42.0684194280       -7.0029224159       -2.0143963352  W2        3809            0.0000000000
     11427      3809  TIP3      H2             41.7296894280       -7.9383324159       -3.1555163352  W2        3809            0.0000000000
     11428      3810  TIP3      OH2            48.3586294280      -12.4214024159      -15.0177863352  W2        3810            0.0000000000
     11429      3810  TIP3      H1             48.9381794280      -12.2713724159      -14.2708963352  W2        3810            0.0000000000
     11430      3810  TIP3      H2             48.7726294280      -11.9506624159      -15.7411463352  W2        3810            0.0000000000
     11431      3811  TIP3      OH2            39.2996594280      -11.5871324159       -3.2411463352  W2        3811            0.0000000000
     11432      3811  TIP3      H1             39.3699794280      -10.9364524159       -2.5426463352  W2        3811            0.0000000000
     11433      3811  TIP3      H2             38.4088794280      -11.4843824159       -3.5760563352  W2        3811            0.0000000000
     11434      3812  TIP3      OH2            46.0851194280       -5.6845524159      -11.5824763352  W2        3812            0.0000000000
     11435      3812  TIP3      H1             46.5588794280       -5.3889224159      -10.8050563352  W2        3812            0.0000000000
     11436      3812  TIP3      H2             45.5220494280       -4.9463924159      -11.8155163352  W2        3812            0.0000000000
     11437      3813  TIP3      OH2            40.6192594280       -5.7137424159       -1.7063363352  W2        3813            0.0000000000
     11438      3813  TIP3      H1             40.6267894280       -5.8497724159       -2.6537863352  W2        3813            0.0000000000
     11439      3813  TIP3      H2             39.7032994280       -5.8309324159       -1.4543363352  W2        3813            0.0000000000
     11440      3814  TIP3      OH2            52.0574694280      -20.6713624159      -15.2048163352  W2        3814            0.0000000000
     11441      3814  TIP3      H1             51.1575394280      -20.5324624159      -14.9097563352  W2        3814            0.0000000000
     11442      3814  TIP3      H2             52.3093094280      -19.8399024159      -15.6066463352  W2        3814            0.0000000000
     11443      3815  TIP3      OH2            40.1233194280      -11.8836424159      -13.2311263352  W2        3815            0.0000000000
     11444      3815  TIP3      H1             39.8314494280      -11.1154724159      -13.7219963352  W2        3815            0.0000000000
     11445      3815  TIP3      H2             39.4488394280      -12.5430224159      -13.3939863352  W2        3815            0.0000000000
     11446      3816  TIP3      OH2            53.2466094280       -6.3051224159      -16.8284263352  W2        3816            0.0000000000
     11447      3816  TIP3      H1             53.3199594280       -5.3661024159      -16.6578963352  W2        3816            0.0000000000
     11448      3816  TIP3      H2             54.1521194280       -6.6102624159      -16.8846963352  W2        3816            0.0000000000
     11449      3817  TIP3      OH2            36.2163294280       -9.5207224159       -4.4161463352  W2        3817            0.0000000000
     11450      3817  TIP3      H1             35.7151694280       -9.5487824159       -5.2311763352  W2        3817            0.0000000000
     11451      3817  TIP3      H2             36.2216994280      -10.4264024159       -4.1064163352  W2        3817            0.0000000000
     11452      3818  TIP3      OH2            35.9665994280       -6.7403424159       -7.5321263352  W2        3818            0.0000000000
     11453      3818  TIP3      H1             36.9126594280       -6.8846424159       -7.5511763352  W2        3818            0.0000000000
     11454      3818  TIP3      H2             35.8542294280       -5.9560624159       -6.9950063352  W2        3818            0.0000000000
     11455      3819  TIP3      OH2            54.1644494280       -6.0743724159       -1.8497563352  W2        3819            0.0000000000
     11456      3819  TIP3      H1             54.1151294280       -7.0295624159       -1.8869963352  W2        3819            0.0000000000
     11457      3819  TIP3      H2             53.3376794280       -5.8068424159       -1.4483763352  W2        3819            0.0000000000
     11458      3820  TIP3      OH2            45.1428494280       -6.5004524159       -2.9736163352  W2        3820            0.0000000000
     11459      3820  TIP3      H1             45.2303094280       -5.6739924159       -2.4987063352  W2        3820            0.0000000000
     11460      3820  TIP3      H2             44.2793594280       -6.8300724159       -2.7246863352  W2        3820            0.0000000000
     11461      3821  TIP3      OH2            45.5574294280       -2.7280824159      -13.1675563352  W2        3821            0.0000000000
     11462      3821  TIP3      H1             45.4820294280       -2.8493624159      -14.1140363352  W2        3821            0.0000000000
     11463      3821  TIP3      H2             45.5902994280       -1.7788124159      -13.0490963352  W2        3821            0.0000000000
     11464      3822  TIP3      OH2            39.2108094280       -3.9393824159      -11.3866563352  W2        3822            0.0000000000
     11465      3822  TIP3      H1             39.3628494280       -4.2873424159      -10.5080063352  W2        3822            0.0000000000
     11466      3822  TIP3      H2             38.3598494280       -4.2956524159      -11.6419363352  W2        3822            0.0000000000
     11467      3823  TIP3      OH2            48.6590294280       -3.5740624159      -16.1653163352  W2        3823            0.0000000000
     11468      3823  TIP3      H1             49.0338694280       -4.3184524159      -16.6360563352  W2        3823            0.0000000000
     11469      3823  TIP3      H2             48.6633994280       -3.8440024159      -15.2469863352  W2        3823            0.0000000000
     11470      3824  TIP3      OH2            48.3278394280       -3.6483524159      -13.4160963352  W2        3824            0.0000000000
     11471      3824  TIP3      H1             47.3928194280       -3.5481624159      -13.2373963352  W2        3824            0.0000000000
     11472      3824  TIP3      H2             48.6080294280       -4.3577524159      -12.8377763352  W2        3824            0.0000000000
     11473      3825  TIP3      OH2            51.3164294280      -14.5811224159       -1.3695363352  W2        3825            0.0000000000
     11474      3825  TIP3      H1             50.9091094280      -14.1005624159       -2.0902063352  W2        3825            0.0000000000
     11475      3825  TIP3      H2             51.3569994280      -15.4865224159       -1.6774563352  W2        3825            0.0000000000
     11476      3826  TIP3      OH2            38.4653794280       -8.1971824159       -3.3728663352  W2        3826            0.0000000000
     11477      3826  TIP3      H1             38.6815094280       -8.5586224159       -2.5132863352  W2        3826            0.0000000000
     11478      3826  TIP3      H2             37.6098494280       -8.5718024159       -3.5825163352  W2        3826            0.0000000000
     11479      3827  TIP3      OH2            41.0841794280      -19.7271324159       -7.3774463352  W2        3827            0.0000000000
     11480      3827  TIP3      H1             40.2225494280      -19.8143124159       -7.7851563352  W2        3827            0.0000000000
     11481      3827  TIP3      H2             41.0617494280      -18.8711224159       -6.9496863352  W2        3827            0.0000000000
     11482      3828  TIP3      OH2            45.7469594280      -20.0050924159       -4.0027463352  W2        3828            0.0000000000
     11483      3828  TIP3      H1             46.1672694280      -20.4203824159       -3.2496863352  W2        3828            0.0000000000
     11484      3828  TIP3      H2             44.8139194280      -20.1837624159       -3.8855463352  W2        3828            0.0000000000
     11485      3829  TIP3      OH2            49.0734494280      -16.2495724159       -3.1492963352  W2        3829            0.0000000000
     11486      3829  TIP3      H1             48.5593994280      -16.3753524159       -2.3516963352  W2        3829            0.0000000000
     11487      3829  TIP3      H2             48.9179194280      -15.3372624159       -3.3936763352  W2        3829            0.0000000000
     11488      3830  TIP3      OH2            49.8359394280      -11.3885724159      -17.3879963352  W2        3830            0.0000000000
     11489      3830  TIP3      H1             49.8780194280      -11.6111824159      -18.3179963352  W2        3830            0.0000000000
     11490      3830  TIP3      H2             50.6851494280      -10.9898624159      -17.1980063352  W2        3830            0.0000000000
     11491      3831  TIP3      OH2            45.4086894280      -17.5127524159      -16.7176663352  W2        3831            0.0000000000
     11492      3831  TIP3      H1             45.1551694280      -17.4935924159      -15.7948563352  W2        3831            0.0000000000
     11493      3831  TIP3      H2             45.1518994280      -18.3842124159      -17.0190463352  W2        3831            0.0000000000
     11494      3832  TIP3      OH2            41.1751894280      -14.7616824159       -6.2824263352  W2        3832            0.0000000000
     11495      3832  TIP3      H1             40.5333994280      -14.8019524159       -5.5734163352  W2        3832            0.0000000000
     11496      3832  TIP3      H2             41.2123894280      -13.8352124159       -6.5201263352  W2        3832            0.0000000000
     11497      3833  TIP3      OH2            41.1720994280      -14.5406724159      -11.3704263352  W2        3833            0.0000000000
     11498      3833  TIP3      H1             40.2793894280      -14.8810624159      -11.4290463352  W2        3833            0.0000000000
     11499      3833  TIP3      H2             41.6227594280      -14.9175824159      -12.1261063352  W2        3833            0.0000000000
     11500      3834  TIP3      OH2            46.7076494280      -14.1246424159      -12.5533463352  W2        3834            0.0000000000
     11501      3834  TIP3      H1             46.2986794280      -13.3097824159      -12.8448663352  W2        3834            0.0000000000
     11502      3834  TIP3      H2             47.4282694280      -14.2646324159      -13.1676363352  W2        3834            0.0000000000
     11503      3835  TIP3      OH2            45.8098094280      -13.9490024159       -1.0652763352  W2        3835            0.0000000000
     11504      3835  TIP3      H1             45.2471894280      -14.6538424159       -0.7444963352  W2        3835            0.0000000000
     11505      3835  TIP3      H2             46.6361494280      -14.0698124159       -0.5975163352  W2        3835            0.0000000000
     11506      3836  TIP3      OH2            47.7124194280      -14.6786024159       -9.7393763352  W2        3836            0.0000000000
     11507      3836  TIP3      H1             47.5168694280      -14.0729224159      -10.4543163352  W2        3836            0.0000000000
     11508      3836  TIP3      H2             47.8936794280      -15.5120824159      -10.1737463352  W2        3836            0.0000000000
     11509      3837  TIP3      OH2            38.9252394280      -14.4413324159       -4.4152263352  W2        3837            0.0000000000
     11510      3837  TIP3      H1             38.8871794280      -14.0411724159       -3.5465163352  W2        3837            0.0000000000
     11511      3837  TIP3      H2             38.4343494280      -15.2580924159       -4.3249363352  W2        3837            0.0000000000
     11512      3838  TIP3      OH2            42.2909794280      -17.0671024159      -17.6166263352  W2        3838            0.0000000000
     11513      3838  TIP3      H1             41.8600494280      -17.5120924159      -16.8868863352  W2        3838            0.0000000000
     11514      3838  TIP3      H2             41.5728494280      -16.6954724159      -18.1288763352  W2        3838            0.0000000000
     11515      3839  TIP3      OH2            35.5333194280      -17.3251524159      -10.5647563352  W2        3839            0.0000000000
     11516      3839  TIP3      H1             36.1640894280      -17.3539424159       -9.8453663352  W2        3839            0.0000000000
     11517      3839  TIP3      H2             35.9827494280      -17.7502824159      -11.2951663352  W2        3839            0.0000000000
     11518      3840  TIP3      OH2            36.8075294280      -16.5789524159      -15.1407163352  W2        3840            0.0000000000
     11519      3840  TIP3      H1             37.2816994280      -15.9879624159      -15.7256263352  W2        3840            0.0000000000
     11520      3840  TIP3      H2             36.0901694280      -16.0486624159      -14.7937063352  W2        3840            0.0000000000
     11521      3841  TIP3      OH2            46.9763394280      -13.0404724159       -5.0681363352  W2        3841            0.0000000000
     11522      3841  TIP3      H1             47.2998194280      -13.6715024159       -5.7110863352  W2        3841            0.0000000000
     11523      3841  TIP3      H2             46.5362694280      -13.5752524159       -4.4073963352  W2        3841            0.0000000000
     11524      3842  TIP3      OH2            43.7536294280      -17.1129224159      -10.2840163352  W2        3842            0.0000000000
     11525      3842  TIP3      H1             42.8427394280      -17.0562424159       -9.9954163352  W2        3842            0.0000000000
     11526      3842  TIP3      H2             44.2589194280      -17.1733724159       -9.4732963352  W2        3842            0.0000000000
     11527      3843  TIP3      OH2            38.5819694280      -15.4842924159      -11.4572563352  W2        3843            0.0000000000
     11528      3843  TIP3      H1             37.6927694280      -15.3847424159      -11.7972963352  W2        3843            0.0000000000
     11529      3843  TIP3      H2             38.8784594280      -16.3259924159      -11.8034663352  W2        3843            0.0000000000
     11530      3844  TIP3      OH2            42.2351494280      -15.4840324159      -13.8007963352  W2        3844            0.0000000000
     11531      3844  TIP3      H1             43.1666994280      -15.3550324159      -13.6224863352  W2        3844            0.0000000000
     11532      3844  TIP3      H2             42.0201794280      -14.8146024159      -14.4503263352  W2        3844            0.0000000000
     11533      3845  TIP3      OH2            48.1588194280      -17.8782924159       -7.0198363352  W2        3845            0.0000000000
     11534      3845  TIP3      H1             47.4819794280      -17.7469824159       -6.3558663352  W2        3845            0.0000000000
     11535      3845  TIP3      H2             47.6733094280      -18.0333424159       -7.8300663352  W2        3845            0.0000000000
     11536      3846  TIP3      OH2            40.9091694280      -14.2898124159      -16.2341863352  W2        3846            0.0000000000
     11537      3846  TIP3      H1             40.3666794280      -14.6694324159      -16.9254263352  W2        3846            0.0000000000
     11538      3846  TIP3      H2             41.7426594280      -14.0953424159      -16.6627763352  W2        3846            0.0000000000
     11539      3847  TIP3      OH2            51.4463294280       -2.2067524159       -0.7430763352  W2        3847            0.0000000000
     11540      3847  TIP3      H1             51.6461994280       -1.7825624159       -1.5775463352  W2        3847            0.0000000000
     11541      3847  TIP3      H2             52.1016994280       -1.8629324159       -0.1360363352  W2        3847            0.0000000000
     11542      3848  TIP3      OH2            39.0443094280       -9.7326224159       -1.1350263352  W2        3848            0.0000000000
     11543      3848  TIP3      H1             39.7765494280       -9.4780324159       -0.5735763352  W2        3848            0.0000000000
     11544      3848  TIP3      H2             38.2641794280       -9.5280824159       -0.6194863352  W2        3848            0.0000000000
     11545      3849  TIP3      OH2            45.0735994280      -14.3256224159       -8.3970563352  W2        3849            0.0000000000
     11546      3849  TIP3      H1             45.6379394280      -14.8719624159       -8.9440963352  W2        3849            0.0000000000
     11547      3849  TIP3      H2             44.9259394280      -14.8474324159       -7.6082963352  W2        3849            0.0000000000
     11548      3850  TIP3      OH2            40.0755694280      -18.1890124159      -11.9785763352  W2        3850            0.0000000000
     11549      3850  TIP3      H1             39.7585194280      -19.0914824159      -12.0140363352  W2        3850            0.0000000000
     11550      3850  TIP3      H2             40.8569794280      -18.1872724159      -12.5314163352  W2        3850            0.0000000000
     11551      3851  TIP3      OH2            43.7001894280      -15.9370124159       -5.9830163352  W2        3851            0.0000000000
     11552      3851  TIP3      H1             42.8647194280      -15.4830624159       -5.8727763352  W2        3851            0.0000000000
     11553      3851  TIP3      H2             44.2242494280      -15.6611624159       -5.2310263352  W2        3851            0.0000000000
     11554      3852  TIP3      OH2            44.2444494280       -9.7242424159      -14.2983763352  W2        3852            0.0000000000
     11555      3852  TIP3      H1             43.4995494280      -10.2317124159      -14.6205863352  W2        3852            0.0000000000
     11556      3852  TIP3      H2             44.1101694280       -9.6754424159      -13.3518963352  W2        3852            0.0000000000
     11557      3853  TIP3      OH2            51.3943394280      -10.5914224159       -5.5116163352  W2        3853            0.0000000000
     11558      3853  TIP3      H1             52.0362194280      -10.1347924159       -6.0553963352  W2        3853            0.0000000000
     11559      3853  TIP3      H2             50.5640294280      -10.4781824159       -5.9742063352  W2        3853            0.0000000000
     11560      3854  TIP3      OH2            48.1421294280      -16.9102524159      -16.0991163352  W2        3854            0.0000000000
     11561      3854  TIP3      H1             47.2035494280      -16.7986924159      -16.2502363352  W2        3854            0.0000000000
     11562      3854  TIP3      H2             48.4393394280      -16.0535624159      -15.7925463352  W2        3854            0.0000000000
     11563      3855  TIP3      OH2            45.7636594280       -9.5399124159       -3.0614663352  W2        3855            0.0000000000
     11564      3855  TIP3      H1             45.4182694280       -9.9216724159       -2.2545063352  W2        3855            0.0000000000
     11565      3855  TIP3      H2             45.5636694280       -8.6065524159       -2.9901763352  W2        3855            0.0000000000
     11566      3856  TIP3      OH2            48.8604794280      -15.0429824159      -14.4383763352  W2        3856            0.0000000000
     11567      3856  TIP3      H1             49.7523794280      -15.1804824159      -14.1192563352  W2        3856            0.0000000000
     11568      3856  TIP3      H2             48.9168394280      -14.2523724159      -14.9750263352  W2        3856            0.0000000000
     11569      3857  TIP3      OH2            39.3692794280      -10.4292424159       -8.5285863352  W2        3857            0.0000000000
     11570      3857  TIP3      H1             40.1139994280      -10.4316724159       -9.1299363352  W2        3857            0.0000000000
     11571      3857  TIP3      H2             39.4469394280      -11.2528624159       -8.0470763352  W2        3857            0.0000000000
     11572      3858  TIP3      OH2            46.3698594280       -8.2658124159      -15.2729163352  W2        3858            0.0000000000
     11573      3858  TIP3      H1             46.0746994280       -7.4390224159      -14.8914363352  W2        3858            0.0000000000
     11574      3858  TIP3      H2             45.6668594280       -8.8851224159      -15.0767763352  W2        3858            0.0000000000
     11575      3859  TIP3      OH2            36.3772494280      -11.9685524159       -3.2137363352  W2        3859            0.0000000000
     11576      3859  TIP3      H1             36.6001094280      -12.3865924159       -2.3819863352  W2        3859            0.0000000000
     11577      3859  TIP3      H2             35.7752594280      -12.5810524159       -3.6364563352  W2        3859            0.0000000000
     11578      3860  TIP3      OH2            43.3937394280      -12.4515624159       -1.0007663352  W2        3860            0.0000000000
     11579      3860  TIP3      H1             43.0978194280      -12.6172624159       -1.8958563352  W2        3860            0.0000000000
     11580      3860  TIP3      H2             44.3252594280      -12.6715324159       -1.0113763352  W2        3860            0.0000000000
     11581      3861  TIP3      OH2            48.0140194280       -7.0783624159       -3.1109663352  W2        3861            0.0000000000
     11582      3861  TIP3      H1             47.1134494280       -6.8951024159       -3.3785763352  W2        3861            0.0000000000
     11583      3861  TIP3      H2             48.0481294280       -6.8194324159       -2.1900863352  W2        3861            0.0000000000
     11584      3862  TIP3      OH2            53.7453494280      -14.8335724159      -14.7437063352  W2        3862            0.0000000000
     11585      3862  TIP3      H1             53.1909794280      -15.2297724159      -15.4159563352  W2        3862            0.0000000000
     11586      3862  TIP3      H2             53.8457094280      -13.9230524159      -15.0213763352  W2        3862            0.0000000000
     11587      3863  TIP3      OH2            53.7085494280       -9.0334024159       -1.9065563352  W2        3863            0.0000000000
     11588      3863  TIP3      H1             52.8573994280       -8.7950224159       -2.2739163352  W2        3863            0.0000000000
     11589      3863  TIP3      H2             54.2988894280       -9.0500824159       -2.6598463352  W2        3863            0.0000000000
     11590      3864  TIP3      OH2            52.0405194280       -6.0475324159      -14.2784963352  W2        3864            0.0000000000
     11591      3864  TIP3      H1             51.6676294280       -6.8731524159      -13.9694363352  W2        3864            0.0000000000
     11592      3864  TIP3      H2             52.3178694280       -6.2305924159      -15.1761563352  W2        3864            0.0000000000
     11593      3865  TIP3      OH2            49.2009094280      -11.2395824159       -7.2573063352  W2        3865            0.0000000000
     11594      3865  TIP3      H1             48.2725994280      -11.4713924159       -7.2843763352  W2        3865            0.0000000000
     11595      3865  TIP3      H2             49.6520194280      -12.0166024159       -7.5874263352  W2        3865            0.0000000000
     11596      3866  TIP3      OH2            41.7442194280       -6.9114224159      -11.1244363352  W2        3866            0.0000000000
     11597      3866  TIP3      H1             42.2714394280       -6.1379824159      -11.3245563352  W2        3866            0.0000000000
     11598      3866  TIP3      H2             40.8640694280       -6.6865024159      -11.4260363352  W2        3866            0.0000000000
     11599      3867  TIP3      OH2            37.4989894280      -12.0490124159      -16.5371963352  W2        3867            0.0000000000
     11600      3867  TIP3      H1             38.1149794280      -11.4222924159      -16.1577163352  W2        3867            0.0000000000
     11601      3867  TIP3      H2             36.6372494280      -11.7330324159      -16.2655463352  W2        3867            0.0000000000
     11602      3868  TIP3      OH2            43.1714494280       -9.2484324159      -11.5480063352  W2        3868            0.0000000000
     11603      3868  TIP3      H1             42.9304494280       -8.3229924159      -11.5064763352  W2        3868            0.0000000000
     11604      3868  TIP3      H2             42.4308094280       -9.7073024159      -11.1516163352  W2        3868            0.0000000000
     11605      3869  TIP3      OH2            43.6861094280       -5.0990724159       -5.2328963352  W2        3869            0.0000000000
     11606      3869  TIP3      H1             44.0485794280       -4.2445124159       -5.4664563352  W2        3869            0.0000000000
     11607      3869  TIP3      H2             44.2176294280       -5.3909124159       -4.4922663352  W2        3869            0.0000000000
     11608      3870  TIP3      OH2            41.8545294280       -4.2266724159      -12.0027863352  W2        3870            0.0000000000
     11609      3870  TIP3      H1             40.9045794280       -4.1209324159      -11.9514563352  W2        3870            0.0000000000
     11610      3870  TIP3      H2             42.2063394280       -3.4059324159      -11.6580363352  W2        3870            0.0000000000
     11611      3871  TIP3      OH2            47.2301894280       -9.0000024159       -5.5323363352  W2        3871            0.0000000000
     11612      3871  TIP3      H1             46.8043194280       -9.2278324159       -4.7059363352  W2        3871            0.0000000000
     11613      3871  TIP3      H2             47.8107694280       -9.7388224159       -5.7148063352  W2        3871            0.0000000000
     11614      3872  TIP3      OH2            49.4330794280       -8.0709524159      -16.4584363352  W2        3872            0.0000000000
     11615      3872  TIP3      H1             49.7863894280       -8.4509724159      -15.6540863352  W2        3872            0.0000000000
     11616      3872  TIP3      H2             48.4844294280       -8.1644724159      -16.3715063352  W2        3872            0.0000000000
     11617      3873  TIP3      OH2            49.8886094280       -4.4480524159       -3.0628563352  W2        3873            0.0000000000
     11618      3873  TIP3      H1             49.2869294280       -5.0037624159       -3.5582263352  W2        3873            0.0000000000
     11619      3873  TIP3      H2             50.1699794280       -3.7810724159       -3.6891163352  W2        3873            0.0000000000
     11620      3874  TIP3      OH2            53.9365194280       -3.5917024159      -16.2574163352  W2        3874            0.0000000000
     11621      3874  TIP3      H1             54.6803094280       -3.0056524159      -16.3972563352  W2        3874            0.0000000000
     11622      3874  TIP3      H2             53.2423294280       -3.0231224159      -15.9241763352  W2        3874            0.0000000000
     11623      3875  TIP3      OH2            38.0111994280      -17.2152824159       -3.6555963352  W2        3875            0.0000000000
     11624      3875  TIP3      H1             37.1184294280      -16.8767424159       -3.7231963352  W2        3875            0.0000000000
     11625      3875  TIP3      H2             37.9124794280      -18.0706724159       -3.2375163352  W2        3875            0.0000000000
     11626      3876  TIP3      OH2            50.2990094280       -9.3987524159      -14.2316463352  W2        3876            0.0000000000
     11627      3876  TIP3      H1             50.0217694280      -10.1268224159      -13.6755363352  W2        3876            0.0000000000
     11628      3876  TIP3      H2             51.2263094280       -9.2795524159      -14.0263863352  W2        3876            0.0000000000
     11629      3877  TIP3      OH2            37.6623994280       -5.4108424159       -5.2206563352  W2        3877            0.0000000000
     11630      3877  TIP3      H1             37.8794294280       -6.3426024159       -5.2516863352  W2        3877            0.0000000000
     11631      3877  TIP3      H2             37.9087494280       -5.1363424159       -4.3373763352  W2        3877            0.0000000000
     11632      3878  TIP3      OH2            43.5238594280       -6.9593424159      -18.0114363352  W2        3878            0.0000000000
     11633      3878  TIP3      H1             43.7628394280       -7.7075324159      -18.5585463352  W2        3878            0.0000000000
     11634      3878  TIP3      H2             43.2549894280       -7.3471724159      -17.1786563352  W2        3878            0.0000000000
     11635      3879  TIP3      OH2            42.4609194280       -7.3889624159      -15.5551763352  W2        3879            0.0000000000
     11636      3879  TIP3      H1             42.6077194280       -7.9089824159      -14.7650863352  W2        3879            0.0000000000
     11637      3879  TIP3      H2             42.4580894280       -6.4822024159      -15.2485863352  W2        3879            0.0000000000
     11638      3880  TIP3      OH2            38.9140294280      -10.1366324159      -15.0446363352  W2        3880            0.0000000000
     11639      3880  TIP3      H1             38.2279594280       -9.7843824159      -14.4776663352  W2        3880            0.0000000000
     11640      3880  TIP3      H2             39.4368194280       -9.3736724159      -15.2912063352  W2        3880            0.0000000000
     11641      3881  TIP3      OH2            46.7455394280      -17.4742524159       -4.7657363352  W2        3881            0.0000000000
     11642      3881  TIP3      H1             47.4443294280      -17.4003824159       -4.1157663352  W2        3881            0.0000000000
     11643      3881  TIP3      H2             46.3646794280      -18.3387524159       -4.6114463352  W2        3881            0.0000000000
     11644      3882  TIP3      OH2            47.5300294280      -17.8220824159      -13.6685063352  W2        3882            0.0000000000
     11645      3882  TIP3      H1             47.7498594280      -17.3505424159      -14.4719663352  W2        3882            0.0000000000
     11646      3882  TIP3      H2             48.0884294280      -17.4278224159      -12.9984463352  W2        3882            0.0000000000
     11647      3883  TIP3      OH2            45.1986394280       -5.6916024159      -14.8057563352  W2        3883            0.0000000000
     11648      3883  TIP3      H1             44.3822494280       -5.1946324159      -14.7533263352  W2        3883            0.0000000000
     11649      3883  TIP3      H2             45.7282694280       -5.2162524159      -15.4458763352  W2        3883            0.0000000000
     11650      3884  TIP3      OH2            44.7300194280      -16.0942024159      -12.8336663352  W2        3884            0.0000000000
     11651      3884  TIP3      H1             45.5422794280      -15.5898824159      -12.7874963352  W2        3884            0.0000000000
     11652      3884  TIP3      H2             44.4853194280      -16.2392324159      -11.9197063352  W2        3884            0.0000000000
     11653      3885  TIP3      OH2            45.2656594280      -15.1079324159       -3.6490063352  W2        3885            0.0000000000
     11654      3885  TIP3      H1             45.3846894280      -14.5343924159       -2.8919663352  W2        3885            0.0000000000
     11655      3885  TIP3      H2             45.9211194280      -15.7959924159       -3.5342263352  W2        3885            0.0000000000
     11656      3886  TIP3      OH2            45.6136894280      -19.0129024159      -11.8955563352  W2        3886            0.0000000000
     11657      3886  TIP3      H1             45.2670394280      -18.3958424159      -11.2511263352  W2        3886            0.0000000000
     11658      3886  TIP3      H2             46.2723794280      -18.5123324159      -12.3770063352  W2        3886            0.0000000000
     11659      3887  TIP3      OH2            42.5369494280       -4.6478824159      -14.8240663352  W2        3887            0.0000000000
     11660      3887  TIP3      H1             42.6978194280       -3.8481324159      -15.3248063352  W2        3887            0.0000000000
     11661      3887  TIP3      H2             42.3397294280       -4.3412824159      -13.9390063352  W2        3887            0.0000000000
     11662      3888  TIP3      OH2            41.2713894280      -17.9499624159      -15.2083063352  W2        3888            0.0000000000
     11663      3888  TIP3      H1             41.1878694280      -17.0616524159      -14.8616663352  W2        3888            0.0000000000
     11664      3888  TIP3      H2             42.1614194280      -18.2152924159      -14.9766263352  W2        3888            0.0000000000
     11665      3889  TIP3      OH2            51.4702394280      -17.2009024159       -2.8140363352  W2        3889            0.0000000000
     11666      3889  TIP3      H1             50.5538194280      -16.9387324159       -2.9016663352  W2        3889            0.0000000000
     11667      3889  TIP3      H2             51.8057394280      -17.2040024159       -3.7105063352  W2        3889            0.0000000000
     11668      3890  TIP3      OH2            50.0723394280      -13.4508024159       -8.7183063352  W2        3890            0.0000000000
     11669      3890  TIP3      H1             49.2747794280      -13.8657824159       -9.0468063352  W2        3890            0.0000000000
     11670      3890  TIP3      H2             50.5174494280      -14.1414324159       -8.2272563352  W2        3890            0.0000000000
     11671      3891  TIP3      OH2            39.5299194280       -7.5227424159      -16.1478563352  W2        3891            0.0000000000
     11672      3891  TIP3      H1             40.1220694280       -6.8232624159      -15.8716163352  W2        3891            0.0000000000
     11673      3891  TIP3      H2             39.9892194280       -7.9557924159      -16.8673963352  W2        3891            0.0000000000
     11674      3892  TIP3      OH2            37.8458394280      -14.8584424159      -17.0319163352  W2        3892            0.0000000000
     11675      3892  TIP3      H1             37.8010994280      -13.9191324159      -16.8532163352  W2        3892            0.0000000000
     11676      3892  TIP3      H2             36.9581594280      -15.0939524159      -17.3017063352  W2        3892            0.0000000000
     11677      3893  TIP3      OH2            51.1587994280       -4.1945524159       -7.0959563352  W2        3893            0.0000000000
     11678      3893  TIP3      H1             51.0032294280       -3.5161124159       -7.7530263352  W2        3893            0.0000000000
     11679      3893  TIP3      H2             52.0914394280       -4.1226224159       -6.8928963352  W2        3893            0.0000000000
     11680      3894  TIP3      OH2            38.6540394280      -20.0767824159       -8.3588163352  W2        3894            0.0000000000
     11681      3894  TIP3      H1             38.4250194280      -20.0175324159       -9.2863163352  W2        3894            0.0000000000
     11682      3894  TIP3      H2             38.2113794280      -20.8682324159       -8.0524063352  W2        3894            0.0000000000
     11683      3895  TIP3      OH2            37.5843694280       -6.1360724159      -12.1982363352  W2        3895            0.0000000000
     11684      3895  TIP3      H1             36.7522294280       -5.6638024159      -12.1710963352  W2        3895            0.0000000000
     11685      3895  TIP3      H2             38.1301994280       -5.6263124159      -12.7969263352  W2        3895            0.0000000000
     11686      3896  TIP3      OH2            36.8727394280       -3.5237024159       -0.8684363352  W2        3896            0.0000000000
     11687      3896  TIP3      H1             37.4129594280       -3.7403024159       -0.1085163352  W2        3896            0.0000000000
     11688      3896  TIP3      H2             36.3915394280       -4.3291024159       -1.0581863352  W2        3896            0.0000000000
     11689      3897  TIP3      OH2            41.4700794280       -4.6042624159        0.7519836648  W2        3897            0.0000000000
     11690      3897  TIP3      H1             42.2377994280       -5.0631824159        1.0929036648  W2        3897            0.0000000000
     11691      3897  TIP3      H2             41.4486994280       -4.8302824159       -0.1778963352  W2        3897            0.0000000000
     11692      3898  TIP3      OH2            45.5620394280       -5.0962024159      -17.8728363352  W2        3898            0.0000000000
     11693      3898  TIP3      H1             44.9181394280       -5.7273424159      -17.5514663352  W2        3898            0.0000000000
     11694      3898  TIP3      H2             46.3238694280       -5.6274024159      -18.1044863352  W2        3898            0.0000000000
     11695      3899  TIP3      OH2            48.0469494280       -6.2241524159       -0.5188663352  W2        3899            0.0000000000
     11696      3899  TIP3      H1             47.6958994280       -7.0808524159       -0.2758263352  W2        3899            0.0000000000
     11697      3899  TIP3      H2             48.7732694280       -6.0814824159        0.0880336648  W2        3899            0.0000000000
     11698      3900  TIP3      OH2            50.1663294280       -5.2792124159      -17.6390363352  W2        3900            0.0000000000
     11699      3900  TIP3      H1             50.4493694280       -6.0736924159      -17.1863463352  W2        3900            0.0000000000
     11700      3900  TIP3      H2             50.9061194280       -5.0461124159      -18.1999263352  W2        3900            0.0000000000
     11701      3901  TIP3      OH2            36.7796894280       -9.7132924159        0.0859936648  W2        3901            0.0000000000
     11702      3901  TIP3      H1             36.9237394280      -10.6152224159       -0.2003363352  W2        3901            0.0000000000
     11703      3901  TIP3      H2             36.0074294280       -9.4270824159       -0.4017763352  W2        3901            0.0000000000
     11704      3902  TIP3      OH2            41.1210594280       -9.3697224159      -17.7815463352  W2        3902            0.0000000000
     11705      3902  TIP3      H1             41.1854694280      -10.1637624159      -17.2509063352  W2        3902            0.0000000000
     11706      3902  TIP3      H2             41.7739794280       -9.4884424159      -18.4713463352  W2        3902            0.0000000000
     11707      3903  TIP3      OH2            43.4352994280       -9.7434824159       -0.4813663352  W2        3903            0.0000000000
     11708      3903  TIP3      H1             43.1066794280       -9.4726724159       -1.3386263352  W2        3903            0.0000000000
     11709      3903  TIP3      H2             43.5871194280      -10.6845024159       -0.5688663352  W2        3903            0.0000000000
     11710      3904  TIP3      OH2            46.4733994280       -8.3225524159      -18.0457463352  W2        3904            0.0000000000
     11711      3904  TIP3      H1             46.2048094280       -8.1423424159      -17.1448563352  W2        3904            0.0000000000
     11712      3904  TIP3      H2             46.2669594280       -9.2479324159      -18.1771663352  W2        3904            0.0000000000
     11713      3905  TIP3      OH2            49.1698194280       -9.8277524159       -3.0981363352  W2        3905            0.0000000000
     11714      3905  TIP3      H1             49.9152994280       -9.2393824159       -3.2177363352  W2        3905            0.0000000000
     11715      3905  TIP3      H2             48.4124994280       -9.2457824159       -3.0348263352  W2        3905            0.0000000000
     11716      3906  TIP3      OH2            37.6123394280      -12.5129624159       -0.4940763352  W2        3906            0.0000000000
     11717      3906  TIP3      H1             38.0204594280      -13.3703024159       -0.6150163352  W2        3906            0.0000000000
     11718      3906  TIP3      H2             37.3520994280      -12.4988324159        0.4269536648  W2        3906            0.0000000000
     11719      3907  TIP3      OH2            42.2704394280      -11.3971024159      -15.4757463352  W2        3907            0.0000000000
     11720      3907  TIP3      H1             41.8106394280      -11.8812724159      -14.7898963352  W2        3907            0.0000000000
     11721      3907  TIP3      H2             42.5253094280      -12.0655624159      -16.1116963352  W2        3907            0.0000000000
     11722      3908  TIP3      OH2            41.5593694280      -13.5043924159       -3.1197863352  W2        3908            0.0000000000
     11723      3908  TIP3      H1             40.9409794280      -12.8297324159       -2.8393163352  W2        3908            0.0000000000
     11724      3908  TIP3      H2             41.9034894280      -13.1830024159       -3.9531663352  W2        3908            0.0000000000
     11725      3909  TIP3      OH2            43.3414794280      -13.1539224159      -17.2134263352  W2        3909            0.0000000000
     11726      3909  TIP3      H1             43.1609794280      -13.3088024159      -18.1405963352  W2        3909            0.0000000000
     11727      3909  TIP3      H2             44.2915294280      -13.0460524159      -17.1686363352  W2        3909            0.0000000000
     11728      3910  TIP3      OH2            46.5791894280      -11.0328624159        0.1576936648  W2        3910            0.0000000000
     11729      3910  TIP3      H1             47.5323094280      -10.9489524159        0.1302936648  W2        3910            0.0000000000
     11730      3910  TIP3      H2             46.4186494280      -11.7446824159        0.7771836648  W2        3910            0.0000000000
     11731      3911  TIP3      OH2            52.7313094280      -10.7995024159      -17.7676163352  W2        3911            0.0000000000
     11732      3911  TIP3      H1             52.4577894280      -11.2239524159      -18.5807863352  W2        3911            0.0000000000
     11733      3911  TIP3      H2             52.7707194280       -9.8680524159      -17.9845763352  W2        3911            0.0000000000
     11734      3912  TIP3      OH2            41.8987394280      -16.1493124159       -2.0374763352  W2        3912            0.0000000000
     11735      3912  TIP3      H1             42.0488294280      -16.8781824159       -2.6395063352  W2        3912            0.0000000000
     11736      3912  TIP3      H2             41.9009794280      -15.3721424159       -2.5962563352  W2        3912            0.0000000000
     11737      3913  TIP3      OH2            42.3113094280      -17.7797324159       -4.5447363352  W2        3913            0.0000000000
     11738      3913  TIP3      H1             42.8470594280      -17.3280624159       -5.1968063352  W2        3913            0.0000000000
     11739      3913  TIP3      H2             41.4592694280      -17.8877524159       -4.9673263352  W2        3913            0.0000000000
     11740      3914  TIP3      OH2            43.8931494280      -12.3401124159       -4.3052163352  W2        3914            0.0000000000
     11741      3914  TIP3      H1             44.6436294280      -12.4963624159       -4.8784363352  W2        3914            0.0000000000
     11742      3914  TIP3      H2             43.5539794280      -11.4884524159       -4.5806663352  W2        3914            0.0000000000
     11743      3915  TIP3      OH2            48.3087694280      -14.5249324159        0.7233136648  W2        3915            0.0000000000
     11744      3915  TIP3      H1             48.5008994280      -15.4559924159        0.6117636648  W2        3915            0.0000000000
     11745      3915  TIP3      H2             49.1663994280      -14.0999824159        0.7128536648  W2        3915            0.0000000000
     11746      3916  TIP3      OH2            49.6254894280      -11.7364124159       -1.1994163352  W2        3916            0.0000000000
     11747      3916  TIP3      H1             49.3439894280      -11.0269524159       -1.7770363352  W2        3916            0.0000000000
     11748      3916  TIP3      H2             50.5679194280      -11.8091124159       -1.3502963352  W2        3916            0.0000000000
     11749      3917  TIP3      OH2            40.3773694280      -14.9509624159       -0.1259163352  W2        3917            0.0000000000
     11750      3917  TIP3      H1             39.6102694280      -15.4834824159       -0.3361563352  W2        3917            0.0000000000
     11751      3917  TIP3      H2             41.0562694280      -15.2609224159       -0.7252863352  W2        3917            0.0000000000
     11752      3918  TIP3      OH2            43.1168594280      -20.3231624159       -4.1133763352  W2        3918            0.0000000000
     11753      3918  TIP3      H1             43.0188194280      -19.3768424159       -4.2187563352  W2        3918            0.0000000000
     11754      3918  TIP3      H2             42.3744794280      -20.6957824159       -4.5890263352  W2        3918            0.0000000000
     11755      3919  TIP3      OH2            44.3809094280      -16.0016224159       -0.5495363352  W2        3919            0.0000000000
     11756      3919  TIP3      H1             44.1454494280      -16.2209524159        0.3519536648  W2        3919            0.0000000000
     11757      3919  TIP3      H2             43.5975994280      -16.2085024159       -1.0592863352  W2        3919            0.0000000000
     11758      3920  TIP3      OH2            47.0965694280      -16.8742724159       -1.4741863352  W2        3920            0.0000000000
     11759      3920  TIP3      H1             46.1491094280      -16.8423024159       -1.3418563352  W2        3920            0.0000000000
     11760      3920  TIP3      H2             47.4092394280      -17.4995624159       -0.8203663352  W2        3920            0.0000000000
     11761      3921  TIP3      OH2            48.7307194280      -18.2401624159        0.5310036648  W2        3921            0.0000000000
     11762      3921  TIP3      H1             48.6338994280      -19.1924324159        0.5251936648  W2        3921            0.0000000000
     11763      3921  TIP3      H2             48.4090294280      -17.9714824159        1.3915536648  W2        3921            0.0000000000
     11764      3922  TIP3      OH2            38.5576494280      -17.0305824159       -0.4214463352  W2        3922            0.0000000000
     11765      3922  TIP3      H1             38.7693894280      -17.7369724159       -1.0316963352  W2        3922            0.0000000000
     11766      3922  TIP3      H2             38.4463994280      -17.4679824159        0.4226736648  W2        3922            0.0000000000
     11767      3923  TIP3      OH2            43.3386694280      -21.0294224159       -1.4420963352  W2        3923            0.0000000000
     11768      3923  TIP3      H1             44.0505094280      -21.6692024159       -1.4561863352  W2        3923            0.0000000000
     11769      3923  TIP3      H2             43.2377094280      -20.7625924159       -2.3557863352  W2        3923            0.0000000000
     11770      3924  TIP3      OH2            43.6924194280      -19.3465824159        0.6115336648  W2        3924            0.0000000000
     11771      3924  TIP3      H1             43.5606394280      -19.8222024159       -0.2086163352  W2        3924            0.0000000000
     11772      3924  TIP3      H2             43.0931594280      -18.6022224159        0.5562436648  W2        3924            0.0000000000
     11773      3925  TIP3      OH2            43.2386494280       -2.4635524159      -16.2120663352  W2        3925            0.0000000000
     11774      3925  TIP3      H1             44.1717194280       -2.3056824159      -16.0682263352  W2        3925            0.0000000000
     11775      3925  TIP3      H2             42.9745294280       -1.7882524159      -16.8369163352  W2        3925            0.0000000000
     11776      3926  TIP3      OH2            36.8071394280       -7.8271724159      -16.7292563352  W2        3926            0.0000000000
     11777      3926  TIP3      H1             37.7210594280       -7.7482824159      -16.4558663352  W2        3926            0.0000000000
     11778      3926  TIP3      H2             36.8144494280       -8.5142124159      -17.3956963352  W2        3926            0.0000000000
     11779      3927  TIP3      OH2            35.4561994280       -2.4343224159      -11.6518663352  W2        3927            0.0000000000
     11780      3927  TIP3      H1             34.8089094280       -2.8961524159      -12.1847463352  W2        3927            0.0000000000
     11781      3927  TIP3      H2             35.8106594280       -3.1059924159      -11.0692463352  W2        3927            0.0000000000
     11782      3928  TIP3      OH2            36.3261194280       -4.3536224159       -9.8472463352  W2        3928            0.0000000000
     11783      3928  TIP3      H1             35.9917994280       -5.2338924159       -9.6752263352  W2        3928            0.0000000000
     11784      3928  TIP3      H2             36.5483594280       -4.0081224159       -8.9826863352  W2        3928            0.0000000000
     11785      3929  TIP3      OH2            53.8745994280       -3.5439824159       -6.8667663352  W2        3929            0.0000000000
     11786      3929  TIP3      H1             53.8532694280       -3.3591424159       -5.9278263352  W2        3929            0.0000000000
     11787      3929  TIP3      H2             54.5652194280       -2.9755824159       -7.2076263352  W2        3929            0.0000000000
     11788      3930  TIP3      OH2            53.4378894280       -3.9768724159       -3.9448563352  W2        3930            0.0000000000
     11789      3930  TIP3      H1             52.9507594280       -4.7124624159       -4.3161163352  W2        3930            0.0000000000
     11790      3930  TIP3      H2             53.9871594280       -4.3704824159       -3.2669163352  W2        3930            0.0000000000
     11791      3931  TIP3      OH2            51.8886194280       -8.1870624159        0.6931736648  W2        3931            0.0000000000
     11792      3931  TIP3      H1             51.0227294280       -8.2920924159        1.0874036648  W2        3931            0.0000000000
     11793      3931  TIP3      H2             52.2652094280       -7.4287324159        1.1396436648  W2        3931            0.0000000000
     11794      3932  TIP3      OH2            53.1895894280       -9.9306924159      -13.7925763352  W2        3932            0.0000000000
     11795      3932  TIP3      H1             54.0397294280       -9.5096024159      -13.6654163352  W2        3932            0.0000000000
     11796      3932  TIP3      H2             53.1950994280      -10.6706824159      -13.1854363352  W2        3932            0.0000000000
     11797      3933  TIP3      OH2            53.5841494280      -11.8769524159      -11.9690063352  W2        3933            0.0000000000
     11798      3933  TIP3      H1             52.8576094280      -12.3566924159      -11.5712463352  W2        3933            0.0000000000
     11799      3933  TIP3      H2             54.1654794280      -11.6714824159      -11.2368463352  W2        3933            0.0000000000
     11800      3934  TIP3      OH2            53.3432694280       -9.0922024159       -7.0212463352  W2        3934            0.0000000000
     11801      3934  TIP3      H1             54.1766894280       -9.4702024159       -7.3018863352  W2        3934            0.0000000000
     11802      3934  TIP3      H2             53.4552994280       -8.1490824159       -7.1403363352  W2        3934            0.0000000000
     11803      3935  TIP3      OH2            51.8294994280       -6.2144524159       -4.7144063352  W2        3935            0.0000000000
     11804      3935  TIP3      H1             51.1820294280       -5.8893024159       -4.0888863352  W2        3935            0.0000000000
     11805      3935  TIP3      H2             51.3118994280       -6.6546824159       -5.3885763352  W2        3935            0.0000000000
     11806      3936  TIP3      OH2            53.8524594280      -11.9761024159      -15.5778763352  W2        3936            0.0000000000
     11807      3936  TIP3      H1             53.3305694280      -11.6196924159      -16.2967863352  W2        3936            0.0000000000
     11808      3936  TIP3      H2             53.8193794280      -11.3013224159      -14.8997863352  W2        3936            0.0000000000
     11809      3937  TIP3      OH2            52.2013594280      -14.7365424159      -17.0271663352  W2        3937            0.0000000000
     11810      3937  TIP3      H1             52.2977994280      -14.0698424159      -17.7071963352  W2        3937            0.0000000000
     11811      3937  TIP3      H2             52.0613194280      -15.5519124159      -17.5086163352  W2        3937            0.0000000000
     11812      3938  TIP3      OH2            51.3708294280      -13.3563024159      -11.4061363352  W2        3938            0.0000000000
     11813      3938  TIP3      H1             51.2207094280      -14.3014424159      -11.4263563352  W2        3938            0.0000000000
     11814      3938  TIP3      H2             51.0172794280      -13.0751624159      -10.5622263352  W2        3938            0.0000000000
     11815      3939  TIP3      OH2            36.4060694280      -11.2780824159       -7.3957563352  W2        3939            0.0000000000
     11816      3939  TIP3      H1             36.5903594280      -11.3599124159       -8.3314663352  W2        3939            0.0000000000
     11817      3939  TIP3      H2             37.2553594280      -11.4023824159       -6.9721163352  W2        3939            0.0000000000
     11818      3940  TIP3      OH2            52.2271194280      -11.3859724159       -1.7673063352  W2        3940            0.0000000000
     11819      3940  TIP3      H1             52.8098494280      -12.1207424159       -1.5755863352  W2        3940            0.0000000000
     11820      3940  TIP3      H2             52.7910494280      -10.6139424159       -1.7207263352  W2        3940            0.0000000000
     11821      3941  TIP3      OH2            53.7238294280      -13.4833924159       -1.0827663352  W2        3941            0.0000000000
     11822      3941  TIP3      H1             52.8604994280      -13.8621824159       -1.2482963352  W2        3941            0.0000000000
     11823      3941  TIP3      H2             54.3281994280      -14.2219124159       -1.1571863352  W2        3941            0.0000000000
     11824      3942  TIP3      OH2            51.4487394280      -17.3285624159      -17.9096163352  W2        3942            0.0000000000
     11825      3942  TIP3      H1             52.0593194280      -17.6998824159      -17.2727963352  W2        3942            0.0000000000
     11826      3942  TIP3      H2             50.6118894280      -17.7498724159      -17.7136163352  W2        3942            0.0000000000
     11827      3943  TIP3      OH2            51.0813094280      -15.7737224159      -12.9436263352  W2        3943            0.0000000000
     11828      3943  TIP3      H1             51.3610194280      -16.6806824159      -12.8194563352  W2        3943            0.0000000000
     11829      3943  TIP3      H2             51.8404794280      -15.3395724159      -13.3327063352  W2        3943            0.0000000000
     11830      3944  TIP3      OH2            51.6931394280      -15.1919824159       -7.5077363352  W2        3944            0.0000000000
     11831      3944  TIP3      H1             52.6259394280      -14.9799924159       -7.5421363352  W2        3944            0.0000000000
     11832      3944  TIP3      H2             51.4578894280      -15.0907724159       -6.5854363352  W2        3944            0.0000000000
     11833      3945  TIP3      OH2            51.7223294280      -14.4554524159       -4.7317963352  W2        3945            0.0000000000
     11834      3945  TIP3      H1             50.8794594280      -14.1874124159       -4.3658163352  W2        3945            0.0000000000
     11835      3945  TIP3      H2             52.1647594280      -13.6332624159       -4.9426863352  W2        3945            0.0000000000
     11836      3946  TIP3      OH2            36.0035494280      -16.0075824159       -1.2548763352  W2        3946            0.0000000000
     11837      3946  TIP3      H1             36.9230394280      -16.1297524159       -1.0185663352  W2        3946            0.0000000000
     11838      3946  TIP3      H2             35.5539994280      -16.7576124159       -0.8655263352  W2        3946            0.0000000000
     11839      3947  TIP3      OH2            54.0054894280      -20.4754324159        0.6217036648  W2        3947            0.0000000000
     11840      3947  TIP3      H1             54.3551894280      -21.1290824159        0.0161736648  W2        3947            0.0000000000
     11841      3947  TIP3      H2             54.1524394280      -19.6380224159        0.1819636648  W2        3947            0.0000000000
     11842      3948  TIP3      OH2            51.6947894280      -18.5107924159      -12.8954263352  W2        3948            0.0000000000
     11843      3948  TIP3      H1             51.8772894280      -18.9596424159      -12.0699263352  W2        3948            0.0000000000
     11844      3948  TIP3      H2             51.0950794280      -19.0953524159      -13.3589663352  W2        3948            0.0000000000
     11845      3949  TIP3      OH2            37.2247994280      -17.6954224159       -8.3635863352  W2        3949            0.0000000000
     11846      3949  TIP3      H1             37.6699594280      -18.4871724159       -8.0616163352  W2        3949            0.0000000000
     11847      3949  TIP3      H2             37.6910994280      -16.9789024159       -7.9330263352  W2        3949            0.0000000000
     11848      3950  TIP3      OH2            35.5288294280      -14.6961224159       -7.2945663352  W2        3950            0.0000000000
     11849      3950  TIP3      H1             36.0208094280      -14.9170724159       -8.0853663352  W2        3950            0.0000000000
     11850      3950  TIP3      H2             35.8909194280      -13.8557824159       -7.0136163352  W2        3950            0.0000000000
     11851      3951  TIP3      OH2            53.5252094280      -18.3659724159       -1.0291663352  W2        3951            0.0000000000
     11852      3951  TIP3      H1             52.6077794280      -18.0952624159       -1.0648163352  W2        3951            0.0000000000
     11853      3951  TIP3      H2             53.6481494280      -18.9011324159       -1.8131963352  W2        3951            0.0000000000
     11854      3952  TIP3      OH2            53.5614094280      -18.4429824159      -16.3673963352  W2        3952            0.0000000000
     11855      3952  TIP3      H1             53.9736694280      -19.1644124159      -16.8425963352  W2        3952            0.0000000000
     11856      3952  TIP3      H2             54.2430594280      -17.7735224159      -16.3089663352  W2        3952            0.0000000000
     11857      3953  TIP3      OH2            35.8424794280      -18.4382124159      -13.2403263352  W2        3953            0.0000000000
     11858      3953  TIP3      H1             34.9173194280      -18.2295524159      -13.3697763352  W2        3953            0.0000000000
     11859      3953  TIP3      H2             36.2964694280      -17.9541324159      -13.9300963352  W2        3953            0.0000000000
     11860      3954  TIP3      OH2            50.6131994280       -3.4540424159      -11.2945863352  W2        3954            0.0000000000
     11861      3954  TIP3      H1             51.2654894280       -3.8018324159      -11.9026763352  W2        3954            0.0000000000
     11862      3954  TIP3      H2             51.1235794280       -2.9657224159      -10.6486163352  W2        3954            0.0000000000
     11863      3955  TIP3      OH2            35.8060194280      -19.7003124159       -4.8960763352  W2        3955            0.0000000000
     11864      3955  TIP3      H1             35.1410694280      -19.9462824159       -4.2529863352  W2        3955            0.0000000000
     11865      3955  TIP3      H2             35.3631494280      -19.0782724159       -5.4732763352  W2        3955            0.0000000000
     11866      3956  TIP3      OH2            37.9979494280       -6.5249024159       -0.7514963352  W2        3956            0.0000000000
     11867      3956  TIP3      H1             37.1771994280       -6.3502524159       -1.2120263352  W2        3956            0.0000000000
     11868      3956  TIP3      H2             37.7457294280       -6.5984324159        0.1689436648  W2        3956            0.0000000000
     11869      3957  TIP3      OH2            40.9522394280       -5.5507824159       -4.4930963352  W2        3957            0.0000000000
     11870      3957  TIP3      H1             40.5273494280       -4.7409324159       -4.7756363352  W2        3957            0.0000000000
     11871      3957  TIP3      H2             41.8565194280       -5.4653724159       -4.7951163352  W2        3957            0.0000000000
     11872      3958  TIP3      OH2            45.2633794280       -4.1517824159       -1.5337263352  W2        3958            0.0000000000
     11873      3958  TIP3      H1             45.4481294280       -4.4851724159       -0.6556963352  W2        3958            0.0000000000
     11874      3958  TIP3      H2             46.1098294280       -3.8419224159       -1.8558063352  W2        3958            0.0000000000
     11875      3959  TIP3      OH2            47.6084194280       -2.8658924159       -2.2895863352  W2        3959            0.0000000000
     11876      3959  TIP3      H1             48.2853094280       -3.4986624159       -2.5296663352  W2        3959            0.0000000000
     11877      3959  TIP3      H2             47.9302994280       -2.4648424159       -1.4822563352  W2        3959            0.0000000000
     11878      3960  TIP3      OH2            52.5257994280      -20.2763424159       -3.2100863352  W2        3960            0.0000000000
     11879      3960  TIP3      H1             51.7131494280      -19.9513124159       -3.5976163352  W2        3960            0.0000000000
     11880      3960  TIP3      H2             52.7586494280      -21.0364924159       -3.7431763352  W2        3960            0.0000000000
     11881      3961  TIP3      OH2            38.3539094280       -2.2943924159       -4.4455663352  W2        3961            0.0000000000
     11882      3961  TIP3      H1             37.6335494280       -1.8542924159       -4.8967963352  W2        3961            0.0000000000
     11883      3961  TIP3      H2             37.9883094280       -2.5449224159       -3.5971663352  W2        3961            0.0000000000
     11884      3962  TIP3      OH2            40.8211694280       -2.6940024159       -5.4158463352  W2        3962            0.0000000000
     11885      3962  TIP3      H1             39.9563894280       -2.6221524159       -5.0118363352  W2        3962            0.0000000000
     11886      3962  TIP3      H2             40.7660694280       -2.1472724159       -6.1995963352  W2        3962            0.0000000000
     11887      3963  TIP3      OH2            45.5317294280       -2.8061124159       -6.2402463352  W2        3963            0.0000000000
     11888      3963  TIP3      H1             45.0751294280       -2.2771424159       -6.8944063352  W2        3963            0.0000000000
     11889      3963  TIP3      H2             45.6945294280       -2.2029724159       -5.5150163352  W2        3963            0.0000000000
     11890      3964  TIP3      OH2            47.8593594280       -3.9281524159       -5.2952163352  W2        3964            0.0000000000
     11891      3964  TIP3      H1             46.9547294280       -3.7631324159       -5.5610063352  W2        3964            0.0000000000
     11892      3964  TIP3      H2             48.2882194280       -3.0749324159       -5.3608763352  W2        3964            0.0000000000
     11893      3965  TIP3      OH2            50.4635494280       -2.3582424159       -5.0004363352  W2        3965            0.0000000000
     11894      3965  TIP3      H1             50.2817494280       -1.4423524159       -5.2109463352  W2        3965            0.0000000000
     11895      3965  TIP3      H2             50.6403294280       -2.7685324159       -5.8469763352  W2        3965            0.0000000000
     11896      3966  TIP3      OH2            37.7687194280       -3.6711424159       -7.5353863352  W2        3966            0.0000000000
     11897      3966  TIP3      H1             37.7503194280       -4.0966324159       -6.6781563352  W2        3966            0.0000000000
     11898      3966  TIP3      H2             38.5735094280       -3.9896424159       -7.9441663352  W2        3966            0.0000000000
     11899      3967  TIP3      OH2            39.9100294280       -4.9612724159       -8.8803963352  W2        3967            0.0000000000
     11900      3967  TIP3      H1             39.6910994280       -5.8775324159       -8.7107963352  W2        3967            0.0000000000
     11901      3967  TIP3      H2             40.7342494280       -4.8212324159       -8.4142563352  W2        3967            0.0000000000
     11902      3968  TIP3      OH2            42.4472794280       -4.4913424159       -8.0315963352  W2        3968            0.0000000000
     11903      3968  TIP3      H1             42.6598494280       -5.3794424159       -8.3185063352  W2        3968            0.0000000000
     11904      3968  TIP3      H2             42.5117894280       -4.5255724159       -7.0771963352  W2        3968            0.0000000000
     11905      3969  TIP3      OH2            45.9556494280      -18.8272824159       -8.8872663352  W2        3969            0.0000000000
     11906      3969  TIP3      H1             45.2813294280      -19.4567224159       -8.6316863352  W2        3969            0.0000000000
     11907      3969  TIP3      H2             46.5195694280      -19.3113924159       -9.4904763352  W2        3969            0.0000000000
     11908      3970  TIP3      OH2            51.0983694280      -20.7198824159       -8.7745563352  W2        3970            0.0000000000
     11909      3970  TIP3      H1             51.7021294280      -20.1723424159       -9.2764563352  W2        3970            0.0000000000
     11910      3970  TIP3      H2             50.2285694280      -20.4008424159       -9.0151463352  W2        3970            0.0000000000
     11911      3971  TIP3      OH2            52.8254094280      -19.5810124159      -10.4414663352  W2        3971            0.0000000000
     11912      3971  TIP3      H1             53.4371594280      -20.0954424159      -10.9681063352  W2        3971            0.0000000000
     11913      3971  TIP3      H2             53.2077494280      -18.7038024159      -10.4180263352  W2        3971            0.0000000000
     11914      3972  TIP3      OH2            38.2823994280      -20.1932524159      -11.0652763352  W2        3972            0.0000000000
     11915      3972  TIP3      H1             37.5053794280      -20.4277624159      -11.5726863352  W2        3972            0.0000000000
     11916      3972  TIP3      H2             38.8127594280      -20.9900424159      -11.0564763352  W2        3972            0.0000000000
     11917      3973  TIP3      OH2            37.1187394280      -20.3954424159      -15.2616663352  W2        3973            0.0000000000
     11918      3973  TIP3      H1             37.5578094280      -19.7843924159      -15.8533163352  W2        3973            0.0000000000
     11919      3973  TIP3      H2             36.4849794280      -19.8570324159      -14.7876663352  W2        3973            0.0000000000
     11920      3974  TIP3      OH2            42.8616594280      -20.2665424159      -11.2519663352  W2        3974            0.0000000000
     11921      3974  TIP3      H1             43.7359994280      -19.8781124159      -11.2815363352  W2        3974            0.0000000000
     11922      3974  TIP3      H2             42.7257394280      -20.4817624159      -10.3292463352  W2        3974            0.0000000000
     11923      3975  TIP3      OH2            48.4184994280      -20.2365624159       -9.6027963352  W2        3975            0.0000000000
     11924      3975  TIP3      H1             48.4946594280      -20.1414024159      -10.5521963352  W2        3975            0.0000000000
     11925      3975  TIP3      H2             48.1434194280      -21.1442724159       -9.4738863352  W2        3975            0.0000000000
     11926      3976  TIP3      OH2            49.7717594280      -20.2107824159      -13.9102963352  W2        3976            0.0000000000
     11927      3976  TIP3      H1             49.0688694280      -19.5958624159      -14.1201563352  W2        3976            0.0000000000
     11928      3976  TIP3      H2             49.3268994280      -21.0481124159      -13.7792063352  W2        3976            0.0000000000
     11929      3977  TIP3      OH2            37.0196894280       -4.4472224159      -14.3641563352  W2        3977            0.0000000000
     11930      3977  TIP3      H1             36.3346794280       -4.4853324159      -15.0316463352  W2        3977            0.0000000000
     11931      3977  TIP3      H2             37.0234094280       -3.5344624159      -14.0759463352  W2        3977            0.0000000000
     11932      3978  TIP3      OH2            38.9796494280      -18.4792924159      -16.8192563352  W2        3978            0.0000000000
     11933      3978  TIP3      H1             39.4709894280      -19.1090524159      -17.3467063352  W2        3978            0.0000000000
     11934      3978  TIP3      H2             39.6032794280      -18.1833524159      -16.1561363352  W2        3978            0.0000000000
     11935      3979  TIP3      OH2            44.0056594280      -18.1861424159      -14.3622063352  W2        3979            0.0000000000
     11936      3979  TIP3      H1             44.1837894280      -18.8328224159      -13.6793463352  W2        3979            0.0000000000
     11937      3979  TIP3      H2             43.9522794280      -17.3523724159      -13.8950963352  W2        3979            0.0000000000
     11938      3980  TIP3      OH2            45.8840394280       -3.2377324159      -15.9665363352  W2        3980            0.0000000000
     11939      3980  TIP3      H1             46.7500594280       -2.8709924159      -16.1447163352  W2        3980            0.0000000000
     11940      3980  TIP3      H2             45.6373194280       -3.6769324159      -16.7804563352  W2        3980            0.0000000000
     11941      3981  TIP3      OH2            52.5929994280       -3.6747024159      -13.2874263352  W2        3981            0.0000000000
     11942      3981  TIP3      H1             52.3987094280       -4.4224924159      -13.8524663352  W2        3981            0.0000000000
     11943      3981  TIP3      H2             52.5540094280       -2.9166924159      -13.8706363352  W2        3981            0.0000000000
     11944      3982  TIP3      OH2            38.2401994280      -19.6790624159       -1.5476563352  W2        3982            0.0000000000
     11945      3982  TIP3      H1             37.8740194280      -20.4448024159       -1.1051863352  W2        3982            0.0000000000
     11946      3982  TIP3      H2             39.1530494280      -19.6500424159       -1.2611463352  W2        3982            0.0000000000
     11947      3983  TIP3      OH2            40.2132794280      -20.3286224159       -0.0119463352  W2        3983            0.0000000000
     11948      3983  TIP3      H1             41.1116394280      -20.6026024159       -0.1966063352  W2        3983            0.0000000000
     11949      3983  TIP3      H2             39.8265894280      -21.0710224159        0.4523136648  W2        3983            0.0000000000
     11950      3984  TIP3      OH2            38.8378094280       -3.5271424159      -17.3389463352  W2        3984            0.0000000000
     11951      3984  TIP3      H1             38.5702694280       -3.2408524159      -16.4656363352  W2        3984            0.0000000000
     11952      3984  TIP3      H2             39.6090694280       -4.0732224159      -17.1866963352  W2        3984            0.0000000000
     11953      3985  TIP3      OH2            48.6345094280      -20.9960924159        0.1703336648  W2        3985            0.0000000000
     11954      3985  TIP3      H1             48.7112294280      -21.4220224159        1.0241036648  W2        3985            0.0000000000
     11955      3985  TIP3      H2             49.5281694280      -20.9826224159       -0.1723163352  W2        3985            0.0000000000
     11956      3986  TIP3      OH2            51.8106194280       -4.9234624159       -1.1372463352  W2        3986            0.0000000000
     11957      3986  TIP3      H1             51.0288094280       -5.1096624159       -1.6571863352  W2        3986            0.0000000000
     11958      3986  TIP3      H2             51.7386094280       -3.9940324159       -0.9199963352  W2        3986            0.0000000000
     11959      3987  TIP3      OH2            57.5182894280      -12.1677424159       -6.0947163352  W2        3987            0.0000000000
     11960      3987  TIP3      H1             57.5594994280      -12.7934124159       -5.3714763352  W2        3987            0.0000000000
     11961      3987  TIP3      H2             58.2210594280      -11.5438824159       -5.9126763352  W2        3987            0.0000000000
     11962      3988  TIP3      OH2            58.4415994280       -7.7178524159       -7.5598063352  W2        3988            0.0000000000
     11963      3988  TIP3      H1             58.0721194280       -8.5198024159       -7.9293763352  W2        3988            0.0000000000
     11964      3988  TIP3      H2             59.3827094280       -7.8863624159       -7.5134663352  W2        3988            0.0000000000
     11965      3989  TIP3      OH2            55.0516494280      -14.0575924159      -12.1669263352  W2        3989            0.0000000000
     11966      3989  TIP3      H1             54.6039894280      -13.2117224159      -12.1852763352  W2        3989            0.0000000000
     11967      3989  TIP3      H2             54.4907694280      -14.6371724159      -12.6824163352  W2        3989            0.0000000000
     11968      3990  TIP3      OH2            55.7622594280      -11.8956324159      -10.0411263352  W2        3990            0.0000000000
     11969      3990  TIP3      H1             55.9756094280      -12.6654724159       -9.5138263352  W2        3990            0.0000000000
     11970      3990  TIP3      H2             56.5000194280      -11.8059624159      -10.6443663352  W2        3990            0.0000000000
     11971      3991  TIP3      OH2            56.4549094280      -14.4573524159       -8.9195063352  W2        3991            0.0000000000
     11972      3991  TIP3      H1             57.1085694280      -15.0071824159       -8.4874963352  W2        3991            0.0000000000
     11973      3991  TIP3      H2             56.4788394280      -14.7314524159       -9.8363063352  W2        3991            0.0000000000
     11974      3992  TIP3      OH2            58.2386794280      -16.0439124159       -7.6553463352  W2        3992            0.0000000000
     11975      3992  TIP3      H1             58.8523094280      -15.4111524159       -7.2821063352  W2        3992            0.0000000000
     11976      3992  TIP3      H2             58.7507494280      -16.5164124159       -8.3116563352  W2        3992            0.0000000000
     11977      3993  TIP3      OH2            55.7426094280       -8.6254324159      -13.7511163352  W2        3993            0.0000000000
     11978      3993  TIP3      H1             55.4706994280       -8.3963324159      -14.6398263352  W2        3993            0.0000000000
     11979      3993  TIP3      H2             55.7881794280       -7.7875524159      -13.2905863352  W2        3993            0.0000000000
     11980      3994  TIP3      OH2            58.1556594280      -11.5871324159       -3.2411463352  W2        3994            0.0000000000
     11981      3994  TIP3      H1             58.2259794280      -10.9364524159       -2.5426463352  W2        3994            0.0000000000
     11982      3994  TIP3      H2             57.2648794280      -11.4843824159       -3.5760563352  W2        3994            0.0000000000
     11983      3995  TIP3      OH2            55.0723294280       -9.5207224159       -4.4161463352  W2        3995            0.0000000000
     11984      3995  TIP3      H1             54.5711694280       -9.5487824159       -5.2311763352  W2        3995            0.0000000000
     11985      3995  TIP3      H2             55.0776994280      -10.4264024159       -4.1064163352  W2        3995            0.0000000000
     11986      3996  TIP3      OH2            54.8225994280       -6.7403424159       -7.5321263352  W2        3996            0.0000000000
     11987      3996  TIP3      H1             55.7686594280       -6.8846424159       -7.5511763352  W2        3996            0.0000000000
     11988      3996  TIP3      H2             54.7102294280       -5.9560624159       -6.9950063352  W2        3996            0.0000000000
     11989      3997  TIP3      OH2            58.0668094280       -3.9393824159      -11.3866563352  W2        3997            0.0000000000
     11990      3997  TIP3      H1             58.2188494280       -4.2873424159      -10.5080063352  W2        3997            0.0000000000
     11991      3997  TIP3      H2             57.2158494280       -4.2956524159      -11.6419363352  W2        3997            0.0000000000
     11992      3998  TIP3      OH2            57.3213794280       -8.1971824159       -3.3728663352  W2        3998            0.0000000000
     11993      3998  TIP3      H1             57.5375094280       -8.5586224159       -2.5132863352  W2        3998            0.0000000000
     11994      3998  TIP3      H2             56.4658494280       -8.5718024159       -3.5825163352  W2        3998            0.0000000000
     11995      3999  TIP3      OH2            57.7812394280      -14.4413324159       -4.4152263352  W2        3999            0.0000000000
     11996      3999  TIP3      H1             57.7431794280      -14.0411724159       -3.5465163352  W2        3999            0.0000000000
     11997      3999  TIP3      H2             57.2903494280      -15.2580924159       -4.3249363352  W2        3999            0.0000000000
     11998      4000  TIP3      OH2            54.3893194280      -17.3251524159      -10.5647563352  W2        4000            0.0000000000
     11999      4000  TIP3      H1             55.0200894280      -17.3539424159       -9.8453663352  W2        4000            0.0000000000
     12000      4000  TIP3      H2             54.8387494280      -17.7502824159      -11.2951663352  W2        4000            0.0000000000
     12001      4001  TIP3      OH2            55.6635294280      -16.5789524159      -15.1407163352  W2        4001            0.0000000000
     12002      4001  TIP3      H1             56.1376994280      -15.9879624159      -15.7256263352  W2        4001            0.0000000000
     12003      4001  TIP3      H2             54.9461694280      -16.0486624159      -14.7937063352  W2        4001            0.0000000000
     12004      4002  TIP3      OH2            57.4379694280      -15.4842924159      -11.4572563352  W2        4002            0.0000000000
     12005      4002  TIP3      H1             56.5487694280      -15.3847424159      -11.7972963352  W2        4002            0.0000000000
     12006      4002  TIP3      H2             57.7344594280      -16.3259924159      -11.8034663352  W2        4002            0.0000000000
     12007      4003  TIP3      OH2            57.9003094280       -9.7326224159       -1.1350263352  W2        4003            0.0000000000
     12008      4003  TIP3      H1             58.6325494280       -9.4780324159       -0.5735763352  W2        4003            0.0000000000
     12009      4003  TIP3      H2             57.1201794280       -9.5280824159       -0.6194863352  W2        4003            0.0000000000
     12010      4004  TIP3      OH2            58.2252794280      -10.4292424159       -8.5285863352  W2        4004            0.0000000000
     12011      4004  TIP3      H1             58.9699994280      -10.4316724159       -9.1299363352  W2        4004            0.0000000000
     12012      4004  TIP3      H2             58.3029394280      -11.2528624159       -8.0470763352  W2        4004            0.0000000000
     12013      4005  TIP3      OH2            55.2332494280      -11.9685524159       -3.2137363352  W2        4005            0.0000000000
     12014      4005  TIP3      H1             55.4561094280      -12.3865924159       -2.3819863352  W2        4005            0.0000000000
     12015      4005  TIP3      H2             54.6312594280      -12.5810524159       -3.6364563352  W2        4005            0.0000000000
     12016      4006  TIP3      OH2            56.3549894280      -12.0490124159      -16.5371963352  W2        4006            0.0000000000
     12017      4006  TIP3      H1             56.9709794280      -11.4222924159      -16.1577163352  W2        4006            0.0000000000
     12018      4006  TIP3      H2             55.4932494280      -11.7330324159      -16.2655463352  W2        4006            0.0000000000
     12019      4007  TIP3      OH2            56.8671994280      -17.2152824159       -3.6555963352  W2        4007            0.0000000000
     12020      4007  TIP3      H1             55.9744294280      -16.8767424159       -3.7231963352  W2        4007            0.0000000000
     12021      4007  TIP3      H2             56.7684794280      -18.0706724159       -3.2375163352  W2        4007            0.0000000000
     12022      4008  TIP3      OH2            56.5183994280       -5.4108424159       -5.2206563352  W2        4008            0.0000000000
     12023      4008  TIP3      H1             56.7354294280       -6.3426024159       -5.2516863352  W2        4008            0.0000000000
     12024      4008  TIP3      H2             56.7647494280       -5.1363424159       -4.3373763352  W2        4008            0.0000000000
     12025      4009  TIP3      OH2            57.7700294280      -10.1366324159      -15.0446363352  W2        4009            0.0000000000
     12026      4009  TIP3      H1             57.0839594280       -9.7843824159      -14.4776663352  W2        4009            0.0000000000
     12027      4009  TIP3      H2             58.2928194280       -9.3736724159      -15.2912063352  W2        4009            0.0000000000
     12028      4010  TIP3      OH2            58.3859194280       -7.5227424159      -16.1478563352  W2        4010            0.0000000000
     12029      4010  TIP3      H1             58.9780694280       -6.8232624159      -15.8716163352  W2        4010            0.0000000000
     12030      4010  TIP3      H2             58.8452194280       -7.9557924159      -16.8673963352  W2        4010            0.0000000000
     12031      4011  TIP3      OH2            56.7018394280      -14.8584424159      -17.0319163352  W2        4011            0.0000000000
     12032      4011  TIP3      H1             56.6570994280      -13.9191324159      -16.8532163352  W2        4011            0.0000000000
     12033      4011  TIP3      H2             55.8141594280      -15.0939524159      -17.3017063352  W2        4011            0.0000000000
     12034      4012  TIP3      OH2            57.5100394280      -20.0767824159       -8.3588163352  W2        4012            0.0000000000
     12035      4012  TIP3      H1             57.2810194280      -20.0175324159       -9.2863163352  W2        4012            0.0000000000
     12036      4012  TIP3      H2             57.0673794280      -20.8682324159       -8.0524063352  W2        4012            0.0000000000
     12037      4013  TIP3      OH2            56.4403694280       -6.1360724159      -12.1982363352  W2        4013            0.0000000000
     12038      4013  TIP3      H1             55.6082294280       -5.6638024159      -12.1710963352  W2        4013            0.0000000000
     12039      4013  TIP3      H2             56.9861994280       -5.6263124159      -12.7969263352  W2        4013            0.0000000000
     12040      4014  TIP3      OH2            55.7287394280       -3.5237024159       -0.8684363352  W2        4014            0.0000000000
     12041      4014  TIP3      H1             56.2689594280       -3.7403024159       -0.1085163352  W2        4014            0.0000000000
     12042      4014  TIP3      H2             55.2475394280       -4.3291024159       -1.0581863352  W2        4014            0.0000000000
     12043      4015  TIP3      OH2            55.6356894280       -9.7132924159        0.0859936648  W2        4015            0.0000000000
     12044      4015  TIP3      H1             55.7797394280      -10.6152224159       -0.2003363352  W2        4015            0.0000000000
     12045      4015  TIP3      H2             54.8634294280       -9.4270824159       -0.4017763352  W2        4015            0.0000000000
     12046      4016  TIP3      OH2            56.4683394280      -12.5129624159       -0.4940763352  W2        4016            0.0000000000
     12047      4016  TIP3      H1             56.8764594280      -13.3703024159       -0.6150163352  W2        4016            0.0000000000
     12048      4016  TIP3      H2             56.2080994280      -12.4988324159        0.4269536648  W2        4016            0.0000000000
     12049      4017  TIP3      OH2            57.4136494280      -17.0305824159       -0.4214463352  W2        4017            0.0000000000
     12050      4017  TIP3      H1             57.6253894280      -17.7369724159       -1.0316963352  W2        4017            0.0000000000
     12051      4017  TIP3      H2             57.3023994280      -17.4679824159        0.4226736648  W2        4017            0.0000000000
     12052      4018  TIP3      OH2            55.6631394280       -7.8271724159      -16.7292563352  W2        4018            0.0000000000
     12053      4018  TIP3      H1             56.5770594280       -7.7482824159      -16.4558663352  W2        4018            0.0000000000
     12054      4018  TIP3      H2             55.6704494280       -8.5142124159      -17.3956963352  W2        4018            0.0000000000
     12055      4019  TIP3      OH2            54.3121994280       -2.4343224159      -11.6518663352  W2        4019            0.0000000000
     12056      4019  TIP3      H1             53.6649094280       -2.8961524159      -12.1847463352  W2        4019            0.0000000000
     12057      4019  TIP3      H2             54.6666594280       -3.1059924159      -11.0692463352  W2        4019            0.0000000000
     12058      4020  TIP3      OH2            55.1821194280       -4.3536224159       -9.8472463352  W2        4020            0.0000000000
     12059      4020  TIP3      H1             54.8477994280       -5.2338924159       -9.6752263352  W2        4020            0.0000000000
     12060      4020  TIP3      H2             55.4043594280       -4.0081224159       -8.9826863352  W2        4020            0.0000000000
     12061      4021  TIP3      OH2            55.2620694280      -11.2780824159       -7.3957563352  W2        4021            0.0000000000
     12062      4021  TIP3      H1             55.4463594280      -11.3599124159       -8.3314663352  W2        4021            0.0000000000
     12063      4021  TIP3      H2             56.1113594280      -11.4023824159       -6.9721163352  W2        4021            0.0000000000
     12064      4022  TIP3      OH2            54.8595494280      -16.0075824159       -1.2548763352  W2        4022            0.0000000000
     12065      4022  TIP3      H1             55.7790394280      -16.1297524159       -1.0185663352  W2        4022            0.0000000000
     12066      4022  TIP3      H2             54.4099994280      -16.7576124159       -0.8655263352  W2        4022            0.0000000000
     12067      4023  TIP3      OH2            56.0807994280      -17.6954224159       -8.3635863352  W2        4023            0.0000000000
     12068      4023  TIP3      H1             56.5259594280      -18.4871724159       -8.0616163352  W2        4023            0.0000000000
     12069      4023  TIP3      H2             56.5470994280      -16.9789024159       -7.9330263352  W2        4023            0.0000000000
     12070      4024  TIP3      OH2            54.3848294280      -14.6961224159       -7.2945663352  W2        4024            0.0000000000
     12071      4024  TIP3      H1             54.8768094280      -14.9170724159       -8.0853663352  W2        4024            0.0000000000
     12072      4024  TIP3      H2             54.7469194280      -13.8557824159       -7.0136163352  W2        4024            0.0000000000
     12073      4025  TIP3      OH2            54.6984794280      -18.4382124159      -13.2403263352  W2        4025            0.0000000000
     12074      4025  TIP3      H1             53.7733194280      -18.2295524159      -13.3697763352  W2        4025            0.0000000000
     12075      4025  TIP3      H2             55.1524694280      -17.9541324159      -13.9300963352  W2        4025            0.0000000000
     12076      4026  TIP3      OH2            54.6620194280      -19.7003124159       -4.8960763352  W2        4026            0.0000000000
     12077      4026  TIP3      H1             53.9970694280      -19.9462824159       -4.2529863352  W2        4026            0.0000000000
     12078      4026  TIP3      H2             54.2191494280      -19.0782724159       -5.4732763352  W2        4026            0.0000000000
     12079      4027  TIP3      OH2            56.8539494280       -6.5249024159       -0.7514963352  W2        4027            0.0000000000
     12080      4027  TIP3      H1             56.0331994280       -6.3502524159       -1.2120263352  W2        4027            0.0000000000
     12081      4027  TIP3      H2             56.6017294280       -6.5984324159        0.1689436648  W2        4027            0.0000000000
     12082      4028  TIP3      OH2            57.2099094280       -2.2943924159       -4.4455663352  W2        4028            0.0000000000
     12083      4028  TIP3      H1             56.4895494280       -1.8542924159       -4.8967963352  W2        4028            0.0000000000
     12084      4028  TIP3      H2             56.8443094280       -2.5449224159       -3.5971663352  W2        4028            0.0000000000
     12085      4029  TIP3      OH2            56.6247194280       -3.6711424159       -7.5353863352  W2        4029            0.0000000000
     12086      4029  TIP3      H1             56.6063194280       -4.0966324159       -6.6781563352  W2        4029            0.0000000000
     12087      4029  TIP3      H2             57.4295094280       -3.9896424159       -7.9441663352  W2        4029            0.0000000000
     12088      4030  TIP3      OH2            57.1383994280      -20.1932524159      -11.0652763352  W2        4030            0.0000000000
     12089      4030  TIP3      H1             56.3613794280      -20.4277624159      -11.5726863352  W2        4030            0.0000000000
     12090      4030  TIP3      H2             57.6687594280      -20.9900424159      -11.0564763352  W2        4030            0.0000000000
     12091      4031  TIP3      OH2            55.9747394280      -20.3954424159      -15.2616663352  W2        4031            0.0000000000
     12092      4031  TIP3      H1             56.4138094280      -19.7843924159      -15.8533163352  W2        4031            0.0000000000
     12093      4031  TIP3      H2             55.3409794280      -19.8570324159      -14.7876663352  W2        4031            0.0000000000
     12094      4032  TIP3      OH2            55.8756894280       -4.4472224159      -14.3641563352  W2        4032            0.0000000000
     12095      4032  TIP3      H1             55.1906794280       -4.4853324159      -15.0316463352  W2        4032            0.0000000000
     12096      4032  TIP3      H2             55.8794094280       -3.5344624159      -14.0759463352  W2        4032            0.0000000000
     12097      4033  TIP3      OH2            57.8356494280      -18.4792924159      -16.8192563352  W2        4033            0.0000000000
     12098      4033  TIP3      H1             58.3269894280      -19.1090524159      -17.3467063352  W2        4033            0.0000000000
     12099      4033  TIP3      H2             58.4592794280      -18.1833524159      -16.1561363352  W2        4033            0.0000000000
     12100      4034  TIP3      OH2            57.0961994280      -19.6790624159       -1.5476563352  W2        4034            0.0000000000
     12101      4034  TIP3      H1             56.7300194280      -20.4448024159       -1.1051863352  W2        4034            0.0000000000
     12102      4034  TIP3      H2             58.0090494280      -19.6500424159       -1.2611463352  W2        4034            0.0000000000
     12103      4035  TIP3      OH2            57.6938094280       -3.5271424159      -17.3389463352  W2        4035            0.0000000000
     12104      4035  TIP3      H1             57.4262694280       -3.2408524159      -16.4656363352  W2        4035            0.0000000000
     12105      4035  TIP3      H2             58.4650694280       -4.0732224159      -17.1866963352  W2        4035            0.0000000000
     12106      4036  TIP3      OH2           -46.9193405720        7.8189775841      -11.1065263352  W2        4036            0.0000000000
     12107      4036  TIP3      H1            -46.8302305720        8.7627975841      -11.2388163352  W2        4036            0.0000000000
     12108      4036  TIP3      H2            -47.5575805720        7.5436175841      -11.7645863352  W2        4036            0.0000000000
     12109      4037  TIP3      OH2           -47.9862105720        7.0740475841       -7.6877063352  W2        4037            0.0000000000
     12110      4037  TIP3      H1            -48.0244605720        6.4276775841       -6.9827463352  W2        4037            0.0000000000
     12111      4037  TIP3      H2            -48.3085605720        6.6074875841       -8.4588363352  W2        4037            0.0000000000
     12112      4038  TIP3      OH2           -55.6177105720        6.6882575841       -6.0947163352  W2        4038            0.0000000000
     12113      4038  TIP3      H1            -55.5765005720        6.0625875841       -5.3714763352  W2        4038            0.0000000000
     12114      4038  TIP3      H2            -54.9149405720        7.3121175841       -5.9126763352  W2        4038            0.0000000000
     12115      4039  TIP3      OH2           -44.2801905720       10.0130875841       -9.3861963352  W2        4039            0.0000000000
     12116      4039  TIP3      H1            -44.7209205720        9.2926875841       -8.9356363352  W2        4039            0.0000000000
     12117      4039  TIP3      H2            -44.2932205720       10.7338075841       -8.7564263352  W2        4039            0.0000000000
     12118      4040  TIP3      OH2           -54.6944005720       11.1381475841       -7.5598063352  W2        4040            0.0000000000
     12119      4040  TIP3      H1            -55.0638805720       10.3361975841       -7.9293763352  W2        4040            0.0000000000
     12120      4040  TIP3      H2            -53.7532905720       10.9696375841       -7.5134663352  W2        4040            0.0000000000
     12121      4041  TIP3      OH2           -58.0843505720        4.7984075841      -12.1669263352  W2        4041            0.0000000000
     12122      4041  TIP3      H1            -58.5320105720        5.6442775841      -12.1852763352  W2        4041            0.0000000000
     12123      4041  TIP3      H2            -58.6452305720        4.2188275841      -12.6824163352  W2        4041            0.0000000000
     12124      4042  TIP3      OH2           -57.3737405720        6.9603675841      -10.0411263352  W2        4042            0.0000000000
     12125      4042  TIP3      H1            -57.1603905720        6.1905275841       -9.5138263352  W2        4042            0.0000000000
     12126      4042  TIP3      H2            -56.6359805720        7.0500375841      -10.6443663352  W2        4042            0.0000000000
     12127      4043  TIP3      OH2           -47.1686405720       15.1172575841       -9.1741563352  W2        4043            0.0000000000
     12128      4043  TIP3      H1            -46.5490005720       14.4407275841       -9.4472363352  W2        4043            0.0000000000
     12129      4043  TIP3      H2            -47.3769005720       14.8993375841       -8.2656663352  W2        4043            0.0000000000
     12130      4044  TIP3      OH2           -49.5967705720        9.5061875841       -7.2816063352  W2        4044            0.0000000000
     12131      4044  TIP3      H1            -49.2929805720        8.8203275841       -7.8761963352  W2        4044            0.0000000000
     12132      4044  TIP3      H2            -48.8753705720        9.6250575841       -6.6638063352  W2        4044            0.0000000000
     12133      4045  TIP3      OH2           -40.9337905720        1.1077175841       -6.4209863352  W2        4045            0.0000000000
     12134      4045  TIP3      H1            -40.8845705720        1.7178375841       -5.6850763352  W2        4045            0.0000000000
     12135      4045  TIP3      H2            -40.5082805720        1.5688075841       -7.1438763352  W2        4045            0.0000000000
     12136      4046  TIP3      OH2           -46.4560705720        3.9004275841       -6.9541263352  W2        4046            0.0000000000
     12137      4046  TIP3      H1            -46.3134805720        2.9541275841       -6.9339663352  W2        4046            0.0000000000
     12138      4046  TIP3      H2            -46.5621705720        4.1074075841       -7.8826363352  W2        4046            0.0000000000
     12139      4047  TIP3      OH2           -53.3012405720        2.0020675841       -9.6816463352  W2        4047            0.0000000000
     12140      4047  TIP3      H1            -53.2581305720        2.8619175841      -10.1000163352  W2        4047            0.0000000000
     12141      4047  TIP3      H2            -53.7588305720        1.4495375841      -10.3153263352  W2        4047            0.0000000000
     12142      4048  TIP3      OH2           -45.5789705720        2.1326275841      -11.2808163352  W2        4048            0.0000000000
     12143      4048  TIP3      H1            -44.9325405720        1.8039475841      -10.6560563352  W2        4048            0.0000000000
     12144      4048  TIP3      H2            -45.0690305720        2.6505275841      -11.9036763352  W2        4048            0.0000000000
     12145      4049  TIP3      OH2           -56.6810905720        4.3986475841       -8.9195063352  W2        4049            0.0000000000
     12146      4049  TIP3      H1            -56.0274305720        3.8488175841       -8.4874963352  W2        4049            0.0000000000
     12147      4049  TIP3      H2            -56.6571605720        4.1245475841       -9.8363063352  W2        4049            0.0000000000
     12148      4050  TIP3      OH2           -51.5246405720        5.9487775841       -9.7043563352  W2        4050            0.0000000000
     12149      4050  TIP3      H1            -50.9085405720        5.4223175841       -9.1949563352  W2        4050            0.0000000000
     12150      4050  TIP3      H2            -52.1107605720        5.3086475841      -10.1079963352  W2        4050            0.0000000000
     12151      4051  TIP3      OH2           -40.5423305720        2.5856375841       -4.1850063352  W2        4051            0.0000000000
     12152      4051  TIP3      H1            -41.2308705720        3.2437075841       -4.2803463352  W2        4051            0.0000000000
     12153      4051  TIP3      H2            -40.5268705720        2.3884275841       -3.2484663352  W2        4051            0.0000000000
     12154      4052  TIP3      OH2           -54.4910505720        0.9199075841       -5.6075663352  W2        4052            0.0000000000
     12155      4052  TIP3      H1            -54.7098805720        1.4499675841       -6.3739663352  W2        4052            0.0000000000
     12156      4052  TIP3      H2            -55.1589605720        1.1464575841       -4.9604263352  W2        4052            0.0000000000
     12157      4053  TIP3      OH2           -47.1220705720       10.4200175841      -12.0636563352  W2        4053            0.0000000000
     12158      4053  TIP3      H1            -47.4175605720       10.0972475841      -12.9149663352  W2        4053            0.0000000000
     12159      4053  TIP3      H2            -47.4462905720       11.3196875841      -12.0223963352  W2        4053            0.0000000000
     12160      4054  TIP3      OH2           -51.9219105720        8.5954775841       -5.3201963352  W2        4054            0.0000000000
     12161      4054  TIP3      H1            -52.6620005720        9.1936275841       -5.2166763352  W2        4054            0.0000000000
     12162      4054  TIP3      H2            -51.2079605720        9.1494375841       -5.6358363352  W2        4054            0.0000000000
     12163      4055  TIP3      OH2           -43.8151305720        1.4235575841       -9.3002263352  W2        4055            0.0000000000
     12164      4055  TIP3      H1            -44.0303305720        0.6578975841       -8.7676263352  W2        4055            0.0000000000
     12165      4055  TIP3      H2            -43.1593905720        1.8960175841       -8.7873763352  W2        4055            0.0000000000
     12166      4056  TIP3      OH2           -54.8973205720        2.8120875841       -7.6553463352  W2        4056            0.0000000000
     12167      4056  TIP3      H1            -54.2836905720        3.4448475841       -7.2821063352  W2        4056            0.0000000000
     12168      4056  TIP3      H2            -54.3852505720        2.3395875841       -8.3116563352  W2        4056            0.0000000000
     12169      4057  TIP3      OH2           -53.5144805720       10.5597775841       -4.5330463352  W2        4057            0.0000000000
     12170      4057  TIP3      H1            -53.5197205720       11.4391275841       -4.9111163352  W2        4057            0.0000000000
     12171      4057  TIP3      H2            -54.3680705720       10.4761875841       -4.1080563352  W2        4057            0.0000000000
     12172      4058  TIP3      OH2           -57.3933905720       10.2305675841      -13.7511163352  W2        4058            0.0000000000
     12173      4058  TIP3      H1            -57.6653005720       10.4596675841      -14.6398263352  W2        4058            0.0000000000
     12174      4058  TIP3      H2            -57.3478205720       11.0684475841      -13.2905863352  W2        4058            0.0000000000
     12175      4059  TIP3      OH2           -43.7684205720       11.8521575841       -7.0382663352  W2        4059            0.0000000000
     12176      4059  TIP3      H1            -44.7100505720       11.9105475841       -6.8765763352  W2        4059            0.0000000000
     12177      4059  TIP3      H2            -43.4918105720       12.7582075841       -7.1752963352  W2        4059            0.0000000000
     12178      4060  TIP3      OH2           -43.4677205720        0.1386875841       -5.6208763352  W2        4060            0.0000000000
     12179      4060  TIP3      H1            -44.2038005720        0.7493975841       -5.6587463352  W2        4060            0.0000000000
     12180      4060  TIP3      H2            -42.7843205720        0.5535875841       -6.1472363352  W2        4060            0.0000000000
     12181      4061  TIP3      OH2           -50.4645805720       -1.7745824159       -8.1550763352  W2        4061            0.0000000000
     12182      4061  TIP3      H1            -50.5821605720       -2.7229824159       -8.2092463352  W2        4061            0.0000000000
     12183      4061  TIP3      H2            -51.3195705720       -1.4419724159       -7.8819663352  W2        4061            0.0000000000
     12184      4062  TIP3      OH2           -45.5163005720       13.6335075841      -10.4131063352  W2        4062            0.0000000000
     12185      4062  TIP3      H1            -45.0910705720       12.9262975841      -10.8981463352  W2        4062            0.0000000000
     12186      4062  TIP3      H2            -45.1993005720       14.4347775841      -10.8298863352  W2        4062            0.0000000000
     12187      4063  TIP3      OH2           -44.3566505720       11.5343575841      -11.9044463352  W2        4063            0.0000000000
     12188      4063  TIP3      H1            -44.6141705720       10.8443675841      -12.5158563352  W2        4063            0.0000000000
     12189      4063  TIP3      H2            -44.2855705720       11.0914775841      -11.0588563352  W2        4063            0.0000000000
     12190      4064  TIP3      OH2           -42.6706305720       10.1010275841       -3.4270963352  W2        4064            0.0000000000
     12191      4064  TIP3      H1            -42.5310005720        9.5092775841       -4.1663963352  W2        4064            0.0000000000
     12192      4064  TIP3      H2            -42.5033505720       10.9736175841       -3.7832163352  W2        4064            0.0000000000
     12193      4065  TIP3      OH2           -48.1980905720        7.0629775841      -13.6544963352  W2        4065            0.0000000000
     12194      4065  TIP3      H1            -48.9095405720        7.5979475841      -14.0064463352  W2        4065            0.0000000000
     12195      4065  TIP3      H2            -47.5071305720        7.1181875841      -14.3146063352  W2        4065            0.0000000000
     12196      4066  TIP3      OH2           -48.1441705720        5.5204075841      -16.6159963352  W2        4066            0.0000000000
     12197      4066  TIP3      H1            -47.4431805720        5.5430975841      -15.9645963352  W2        4066            0.0000000000
     12198      4066  TIP3      H2            -47.8418805720        4.8923775841      -17.2720663352  W2        4066            0.0000000000
     12199      4067  TIP3      OH2           -40.8287005720        6.4408275841       -5.3610563352  W2        4067            0.0000000000
     12200      4067  TIP3      H1            -41.4812905720        7.1353875841       -5.2719663352  W2        4067            0.0000000000
     12201      4067  TIP3      H2            -40.3636705720        6.6509175841       -6.1708963352  W2        4067            0.0000000000
     12202      4068  TIP3      OH2           -44.7923205720        7.2723075841      -12.7029063352  W2        4068            0.0000000000
     12203      4068  TIP3      H1            -45.5242205720        7.5006775841      -12.1298463352  W2        4068            0.0000000000
     12204      4068  TIP3      H2            -44.3451005720        6.5585775841      -12.2481563352  W2        4068            0.0000000000
     12205      4069  TIP3      OH2           -44.8949705720        5.4465675841       -3.6352063352  W2        4069            0.0000000000
     12206      4069  TIP3      H1            -44.8150605720        6.2100075841       -3.0633563352  W2        4069            0.0000000000
     12207      4069  TIP3      H2            -45.4962005720        5.7258075841       -4.3256963352  W2        4069            0.0000000000
     12208      4070  TIP3      OH2           -53.1469505720        7.9029275841      -10.8204063352  W2        4070            0.0000000000
     12209      4070  TIP3      H1            -53.4774305720        7.5322675841      -11.6387063352  W2        4070            0.0000000000
     12210      4070  TIP3      H2            -52.5585405720        7.2323275841      -10.4735763352  W2        4070            0.0000000000
     12211      4071  TIP3      OH2           -51.7802005720       11.3309875841       -8.1391863352  W2        4071            0.0000000000
     12212      4071  TIP3      H1            -51.8750705720       10.7522975841       -8.8957263352  W2        4071            0.0000000000
     12213      4071  TIP3      H2            -51.0508405720       10.9595575841       -7.6429063352  W2        4071            0.0000000000
     12214      4072  TIP3      OH2           -52.7804005720        6.6714875841       -7.1869063352  W2        4072            0.0000000000
     12215      4072  TIP3      H1            -52.2151505720        6.7929075841       -7.9497863352  W2        4072            0.0000000000
     12216      4072  TIP3      H2            -52.4615105720        7.3089875841       -6.5480563352  W2        4072            0.0000000000
     12217      4073  TIP3      OH2           -46.4711805720       12.1746775841       -6.4528563352  W2        4073            0.0000000000
     12218      4073  TIP3      H1            -46.7115205720       12.8369875841       -5.8049363352  W2        4073            0.0000000000
     12219      4073  TIP3      H2            -46.6693605720       11.3401975841       -6.0278963352  W2        4073            0.0000000000
     12220      4074  TIP3      OH2           -51.9003305720       11.0707575841       -2.4697163352  W2        4074            0.0000000000
     12221      4074  TIP3      H1            -52.2115805720       11.8530775841       -2.0143963352  W2        4074            0.0000000000
     12222      4074  TIP3      H2            -52.5503105720       10.9176675841       -3.1555163352  W2        4074            0.0000000000
     12223      4075  TIP3      OH2           -45.9213705720        6.4345975841      -15.0177863352  W2        4075            0.0000000000
     12224      4075  TIP3      H1            -45.3418205720        6.5846275841      -14.2708963352  W2        4075            0.0000000000
     12225      4075  TIP3      H2            -45.5073705720        6.9053375841      -15.7411463352  W2        4075            0.0000000000
     12226      4076  TIP3      OH2           -54.9803405720        7.2688675841       -3.2411463352  W2        4076            0.0000000000
     12227      4076  TIP3      H1            -54.9100205720        7.9195475841       -2.5426463352  W2        4076            0.0000000000
     12228      4076  TIP3      H2            -55.8711205720        7.3716175841       -3.5760563352  W2        4076            0.0000000000
     12229      4077  TIP3      OH2           -48.1948805720       13.1714475841      -11.5824763352  W2        4077            0.0000000000
     12230      4077  TIP3      H1            -47.7211205720       13.4670775841      -10.8050563352  W2        4077            0.0000000000
     12231      4077  TIP3      H2            -48.7579505720       13.9096075841      -11.8155163352  W2        4077            0.0000000000
     12232      4078  TIP3      OH2           -53.6607405720       13.1422575841       -1.7063363352  W2        4078            0.0000000000
     12233      4078  TIP3      H1            -53.6532105720       13.0062275841       -2.6537863352  W2        4078            0.0000000000
     12234      4078  TIP3      H2            -54.5767005720       13.0250675841       -1.4543363352  W2        4078            0.0000000000
     12235      4079  TIP3      OH2           -42.2225305720       -1.8153624159      -15.2048163352  W2        4079            0.0000000000
     12236      4079  TIP3      H1            -43.1224605720       -1.6764624159      -14.9097563352  W2        4079            0.0000000000
     12237      4079  TIP3      H2            -41.9706905720       -0.9839024159      -15.6066463352  W2        4079            0.0000000000
     12238      4080  TIP3      OH2           -54.1566805720        6.9723575841      -13.2311263352  W2        4080            0.0000000000
     12239      4080  TIP3      H1            -54.4485505720        7.7405275841      -13.7219963352  W2        4080            0.0000000000
     12240      4080  TIP3      H2            -54.8311605720        6.3129775841      -13.3939863352  W2        4080            0.0000000000
     12241      4081  TIP3      OH2           -41.0333905720       12.5508775841      -16.8284263352  W2        4081            0.0000000000
     12242      4081  TIP3      H1            -40.9600405720       13.4898975841      -16.6578963352  W2        4081            0.0000000000
     12243      4081  TIP3      H2            -40.1278805720       12.2457375841      -16.8846963352  W2        4081            0.0000000000
     12244      4082  TIP3      OH2           -58.0636705720        9.3352775841       -4.4161463352  W2        4082            0.0000000000
     12245      4082  TIP3      H1            -58.5648305720        9.3072175841       -5.2311763352  W2        4082            0.0000000000
     12246      4082  TIP3      H2            -58.0583005720        8.4295975841       -4.1064163352  W2        4082            0.0000000000
     12247      4083  TIP3      OH2           -58.3134005720       12.1156575841       -7.5321263352  W2        4083            0.0000000000
     12248      4083  TIP3      H1            -57.3673405720       11.9713575841       -7.5511763352  W2        4083            0.0000000000
     12249      4083  TIP3      H2            -58.4257705720       12.8999375841       -6.9950063352  W2        4083            0.0000000000
     12250      4084  TIP3      OH2           -40.1155505720       12.7816275841       -1.8497563352  W2        4084            0.0000000000
     12251      4084  TIP3      H1            -40.1648705720       11.8264375841       -1.8869963352  W2        4084            0.0000000000
     12252      4084  TIP3      H2            -40.9423205720       13.0491575841       -1.4483763352  W2        4084            0.0000000000
     12253      4085  TIP3      OH2           -49.1371505720       12.3555475841       -2.9736163352  W2        4085            0.0000000000
     12254      4085  TIP3      H1            -49.0496905720       13.1820075841       -2.4987063352  W2        4085            0.0000000000
     12255      4085  TIP3      H2            -50.0006405720       12.0259275841       -2.7246863352  W2        4085            0.0000000000
     12256      4086  TIP3      OH2           -48.7225705720       16.1279175841      -13.1675563352  W2        4086            0.0000000000
     12257      4086  TIP3      H1            -48.7979705720       16.0066375841      -14.1140363352  W2        4086            0.0000000000
     12258      4086  TIP3      H2            -48.6897005720       17.0771875841      -13.0490963352  W2        4086            0.0000000000
     12259      4087  TIP3      OH2           -55.0691905720       14.9166175841      -11.3866563352  W2        4087            0.0000000000
     12260      4087  TIP3      H1            -54.9171505720       14.5686575841      -10.5080063352  W2        4087            0.0000000000
     12261      4087  TIP3      H2            -55.9201505720       14.5603475841      -11.6419363352  W2        4087            0.0000000000
     12262      4088  TIP3      OH2           -45.6209705720       15.2819375841      -16.1653163352  W2        4088            0.0000000000
     12263      4088  TIP3      H1            -45.2461305720       14.5375475841      -16.6360563352  W2        4088            0.0000000000
     12264      4088  TIP3      H2            -45.6166005720       15.0119975841      -15.2469863352  W2        4088            0.0000000000
     12265      4089  TIP3      OH2           -45.9521605720       15.2076475841      -13.4160963352  W2        4089            0.0000000000
     12266      4089  TIP3      H1            -46.8871805720       15.3078375841      -13.2373963352  W2        4089            0.0000000000
     12267      4089  TIP3      H2            -45.6719705720       14.4982475841      -12.8377763352  W2        4089            0.0000000000
     12268      4090  TIP3      OH2           -42.9635705720        4.2748775841       -1.3695363352  W2        4090            0.0000000000
     12269      4090  TIP3      H1            -43.3708905720        4.7554375841       -2.0902063352  W2        4090            0.0000000000
     12270      4090  TIP3      H2            -42.9230005720        3.3694775841       -1.6774563352  W2        4090            0.0000000000
     12271      4091  TIP3      OH2           -55.8146205720       10.6588175841       -3.3728663352  W2        4091            0.0000000000
     12272      4091  TIP3      H1            -55.5984905720       10.2973775841       -2.5132863352  W2        4091            0.0000000000
     12273      4091  TIP3      H2            -56.6701505720       10.2841975841       -3.5825163352  W2        4091            0.0000000000
     12274      4092  TIP3      OH2           -53.1958205720       -0.8711324159       -7.3774463352  W2        4092            0.0000000000
     12275      4092  TIP3      H1            -54.0574505720       -0.9583124159       -7.7851563352  W2        4092            0.0000000000
     12276      4092  TIP3      H2            -53.2182505720       -0.0151224159       -6.9496863352  W2        4092            0.0000000000
     12277      4093  TIP3      OH2           -48.5330405720       -1.1490924159       -4.0027463352  W2        4093            0.0000000000
     12278      4093  TIP3      H1            -48.1127305720       -1.5643824159       -3.2496863352  W2        4093            0.0000000000
     12279      4093  TIP3      H2            -49.4660805720       -1.3277624159       -3.8855463352  W2        4093            0.0000000000
     12280      4094  TIP3      OH2           -45.2065505720        2.6064275841       -3.1492963352  W2        4094            0.0000000000
     12281      4094  TIP3      H1            -45.7206005720        2.4806475841       -2.3516963352  W2        4094            0.0000000000
     12282      4094  TIP3      H2            -45.3620805720        3.5187375841       -3.3936763352  W2        4094            0.0000000000
     12283      4095  TIP3      OH2           -44.4440605720        7.4674275841      -17.3879963352  W2        4095            0.0000000000
     12284      4095  TIP3      H1            -44.4019805720        7.2448175841      -18.3179963352  W2        4095            0.0000000000
     12285      4095  TIP3      H2            -43.5948505720        7.8661375841      -17.1980063352  W2        4095            0.0000000000
     12286      4096  TIP3      OH2           -48.8713105720        1.3432475841      -16.7176663352  W2        4096            0.0000000000
     12287      4096  TIP3      H1            -49.1248305720        1.3624075841      -15.7948563352  W2        4096            0.0000000000
     12288      4096  TIP3      H2            -49.1281005720        0.4717875841      -17.0190463352  W2        4096            0.0000000000
     12289      4097  TIP3      OH2           -53.1048105720        4.0943175841       -6.2824263352  W2        4097            0.0000000000
     12290      4097  TIP3      H1            -53.7466005720        4.0540475841       -5.5734163352  W2        4097            0.0000000000
     12291      4097  TIP3      H2            -53.0676105720        5.0207875841       -6.5201263352  W2        4097            0.0000000000
     12292      4098  TIP3      OH2           -53.1079005720        4.3153275841      -11.3704263352  W2        4098            0.0000000000
     12293      4098  TIP3      H1            -54.0006105720        3.9749375841      -11.4290463352  W2        4098            0.0000000000
     12294      4098  TIP3      H2            -52.6572405720        3.9384175841      -12.1261063352  W2        4098            0.0000000000
     12295      4099  TIP3      OH2           -47.5723505720        4.7313575841      -12.5533463352  W2        4099            0.0000000000
     12296      4099  TIP3      H1            -47.9813205720        5.5462175841      -12.8448663352  W2        4099            0.0000000000
     12297      4099  TIP3      H2            -46.8517305720        4.5913675841      -13.1676363352  W2        4099            0.0000000000
     12298      4100  TIP3      OH2           -48.4701905720        4.9069975841       -1.0652763352  W2        4100            0.0000000000
     12299      4100  TIP3      H1            -49.0328105720        4.2021575841       -0.7444963352  W2        4100            0.0000000000
     12300      4100  TIP3      H2            -47.6438505720        4.7861875841       -0.5975163352  W2        4100            0.0000000000
     12301      4101  TIP3      OH2           -46.5675805720        4.1773975841       -9.7393763352  W2        4101            0.0000000000
     12302      4101  TIP3      H1            -46.7631305720        4.7830775841      -10.4543163352  W2        4101            0.0000000000
     12303      4101  TIP3      H2            -46.3863205720        3.3439175841      -10.1737463352  W2        4101            0.0000000000
     12304      4102  TIP3      OH2           -55.3547605720        4.4146675841       -4.4152263352  W2        4102            0.0000000000
     12305      4102  TIP3      H1            -55.3928205720        4.8148275841       -3.5465163352  W2        4102            0.0000000000
     12306      4102  TIP3      H2            -55.8456505720        3.5979075841       -4.3249363352  W2        4102            0.0000000000
     12307      4103  TIP3      OH2           -51.9890205720        1.7888975841      -17.6166263352  W2        4103            0.0000000000
     12308      4103  TIP3      H1            -52.4199505720        1.3439075841      -16.8868863352  W2        4103            0.0000000000
     12309      4103  TIP3      H2            -52.7071505720        2.1605275841      -18.1288763352  W2        4103            0.0000000000
     12310      4104  TIP3      OH2           -58.7466805720        1.5308475841      -10.5647563352  W2        4104            0.0000000000
     12311      4104  TIP3      H1            -58.1159105720        1.5020575841       -9.8453663352  W2        4104            0.0000000000
     12312      4104  TIP3      H2            -58.2972505720        1.1057175841      -11.2951663352  W2        4104            0.0000000000
     12313      4105  TIP3      OH2           -57.4724705720        2.2770475841      -15.1407163352  W2        4105            0.0000000000
     12314      4105  TIP3      H1            -56.9983005720        2.8680375841      -15.7256263352  W2        4105            0.0000000000
     12315      4105  TIP3      H2            -58.1898305720        2.8073375841      -14.7937063352  W2        4105            0.0000000000
     12316      4106  TIP3      OH2           -47.3036605720        5.8155275841       -5.0681363352  W2        4106            0.0000000000
     12317      4106  TIP3      H1            -46.9801805720        5.1844975841       -5.7110863352  W2        4106            0.0000000000
     12318      4106  TIP3      H2            -47.7437305720        5.2807475841       -4.4073963352  W2        4106            0.0000000000
     12319      4107  TIP3      OH2           -50.5263705720        1.7430775841      -10.2840163352  W2        4107            0.0000000000
     12320      4107  TIP3      H1            -51.4372605720        1.7997575841       -9.9954163352  W2        4107            0.0000000000
     12321      4107  TIP3      H2            -50.0210805720        1.6826275841       -9.4732963352  W2        4107            0.0000000000
     12322      4108  TIP3      OH2           -55.6980305720        3.3717075841      -11.4572563352  W2        4108            0.0000000000
     12323      4108  TIP3      H1            -56.5872305720        3.4712575841      -11.7972963352  W2        4108            0.0000000000
     12324      4108  TIP3      H2            -55.4015405720        2.5300075841      -11.8034663352  W2        4108            0.0000000000
     12325      4109  TIP3      OH2           -52.0448505720        3.3719675841      -13.8007963352  W2        4109            0.0000000000
     12326      4109  TIP3      H1            -51.1133005720        3.5009675841      -13.6224863352  W2        4109            0.0000000000
     12327      4109  TIP3      H2            -52.2598205720        4.0413975841      -14.4503263352  W2        4109            0.0000000000
     12328      4110  TIP3      OH2           -46.1211805720        0.9777075841       -7.0198363352  W2        4110            0.0000000000
     12329      4110  TIP3      H1            -46.7980205720        1.1090175841       -6.3558663352  W2        4110            0.0000000000
     12330      4110  TIP3      H2            -46.6066905720        0.8226575841       -7.8300663352  W2        4110            0.0000000000
     12331      4111  TIP3      OH2           -53.3708305720        4.5661875841      -16.2341863352  W2        4111            0.0000000000
     12332      4111  TIP3      H1            -53.9133205720        4.1865675841      -16.9254263352  W2        4111            0.0000000000
     12333      4111  TIP3      H2            -52.5373405720        4.7606575841      -16.6627763352  W2        4111            0.0000000000
     12334      4112  TIP3      OH2           -42.8336705720       16.6492475841       -0.7430763352  W2        4112            0.0000000000
     12335      4112  TIP3      H1            -42.6338005720       17.0734375841       -1.5775463352  W2        4112            0.0000000000
     12336      4112  TIP3      H2            -42.1783005720       16.9930675841       -0.1360363352  W2        4112            0.0000000000
     12337      4113  TIP3      OH2           -55.2356905720        9.1233775841       -1.1350263352  W2        4113            0.0000000000
     12338      4113  TIP3      H1            -54.5034505720        9.3779675841       -0.5735763352  W2        4113            0.0000000000
     12339      4113  TIP3      H2            -56.0158205720        9.3279175841       -0.6194863352  W2        4113            0.0000000000
     12340      4114  TIP3      OH2           -49.2064005720        4.5303775841       -8.3970563352  W2        4114            0.0000000000
     12341      4114  TIP3      H1            -48.6420605720        3.9840375841       -8.9440963352  W2        4114            0.0000000000
     12342      4114  TIP3      H2            -49.3540605720        4.0085675841       -7.6082963352  W2        4114            0.0000000000
     12343      4115  TIP3      OH2           -54.2044305720        0.6669875841      -11.9785763352  W2        4115            0.0000000000
     12344      4115  TIP3      H1            -54.5214805720       -0.2354824159      -12.0140363352  W2        4115            0.0000000000
     12345      4115  TIP3      H2            -53.4230205720        0.6687275841      -12.5314163352  W2        4115            0.0000000000
     12346      4116  TIP3      OH2           -50.5798105720        2.9189875841       -5.9830163352  W2        4116            0.0000000000
     12347      4116  TIP3      H1            -51.4152805720        3.3729375841       -5.8727763352  W2        4116            0.0000000000
     12348      4116  TIP3      H2            -50.0557505720        3.1948375841       -5.2310263352  W2        4116            0.0000000000
     12349      4117  TIP3      OH2           -50.0355505720        9.1317575841      -14.2983763352  W2        4117            0.0000000000
     12350      4117  TIP3      H1            -50.7804505720        8.6242875841      -14.6205863352  W2        4117            0.0000000000
     12351      4117  TIP3      H2            -50.1698305720        9.1805575841      -13.3518963352  W2        4117            0.0000000000
     12352      4118  TIP3      OH2           -42.8856605720        8.2645775841       -5.5116163352  W2        4118            0.0000000000
     12353      4118  TIP3      H1            -42.2437805720        8.7212075841       -6.0553963352  W2        4118            0.0000000000
     12354      4118  TIP3      H2            -43.7159705720        8.3778175841       -5.9742063352  W2        4118            0.0000000000
     12355      4119  TIP3      OH2           -46.1378705720        1.9457475841      -16.0991163352  W2        4119            0.0000000000
     12356      4119  TIP3      H1            -47.0764505720        2.0573075841      -16.2502363352  W2        4119            0.0000000000
     12357      4119  TIP3      H2            -45.8406605720        2.8024375841      -15.7925463352  W2        4119            0.0000000000
     12358      4120  TIP3      OH2           -48.5163405720        9.3160875841       -3.0614663352  W2        4120            0.0000000000
     12359      4120  TIP3      H1            -48.8617305720        8.9343275841       -2.2545063352  W2        4120            0.0000000000
     12360      4120  TIP3      H2            -48.7163305720       10.2494475841       -2.9901763352  W2        4120            0.0000000000
     12361      4121  TIP3      OH2           -45.4195205720        3.8130175841      -14.4383763352  W2        4121            0.0000000000
     12362      4121  TIP3      H1            -44.5276205720        3.6755175841      -14.1192563352  W2        4121            0.0000000000
     12363      4121  TIP3      H2            -45.3631605720        4.6036275841      -14.9750263352  W2        4121            0.0000000000
     12364      4122  TIP3      OH2           -54.9107205720        8.4267575841       -8.5285863352  W2        4122            0.0000000000
     12365      4122  TIP3      H1            -54.1660005720        8.4243275841       -9.1299363352  W2        4122            0.0000000000
     12366      4122  TIP3      H2            -54.8330605720        7.6031375841       -8.0470763352  W2        4122            0.0000000000
     12367      4123  TIP3      OH2           -47.9101405720       10.5901875841      -15.2729163352  W2        4123            0.0000000000
     12368      4123  TIP3      H1            -48.2053005720       11.4169775841      -14.8914363352  W2        4123            0.0000000000
     12369      4123  TIP3      H2            -48.6131405720        9.9708775841      -15.0767763352  W2        4123            0.0000000000
     12370      4124  TIP3      OH2           -57.9027505720        6.8874475841       -3.2137363352  W2        4124            0.0000000000
     12371      4124  TIP3      H1            -57.6798905720        6.4694075841       -2.3819863352  W2        4124            0.0000000000
     12372      4124  TIP3      H2            -58.5047405720        6.2749475841       -3.6364563352  W2        4124            0.0000000000
     12373      4125  TIP3      OH2           -50.8862605720        6.4044375841       -1.0007663352  W2        4125            0.0000000000
     12374      4125  TIP3      H1            -51.1821805720        6.2387375841       -1.8958563352  W2        4125            0.0000000000
     12375      4125  TIP3      H2            -49.9547405720        6.1844675841       -1.0113763352  W2        4125            0.0000000000
     12376      4126  TIP3      OH2           -46.2659805720       11.7776375841       -3.1109663352  W2        4126            0.0000000000
     12377      4126  TIP3      H1            -47.1665505720       11.9608975841       -3.3785763352  W2        4126            0.0000000000
     12378      4126  TIP3      H2            -46.2318705720       12.0365675841       -2.1900863352  W2        4126            0.0000000000
     12379      4127  TIP3      OH2           -40.5346505720        4.0224275841      -14.7437063352  W2        4127            0.0000000000
     12380      4127  TIP3      H1            -41.0890205720        3.6262275841      -15.4159563352  W2        4127            0.0000000000
     12381      4127  TIP3      H2            -40.4342905720        4.9329475841      -15.0213763352  W2        4127            0.0000000000
     12382      4128  TIP3      OH2           -40.5714505720        9.8225975841       -1.9065563352  W2        4128            0.0000000000
     12383      4128  TIP3      H1            -41.4226005720       10.0609775841       -2.2739163352  W2        4128            0.0000000000
     12384      4128  TIP3      H2            -39.9811105720        9.8059175841       -2.6598463352  W2        4128            0.0000000000
     12385      4129  TIP3      OH2           -42.2394805720       12.8084675841      -14.2784963352  W2        4129            0.0000000000
     12386      4129  TIP3      H1            -42.6123705720       11.9828475841      -13.9694363352  W2        4129            0.0000000000
     12387      4129  TIP3      H2            -41.9621305720       12.6254075841      -15.1761563352  W2        4129            0.0000000000
     12388      4130  TIP3      OH2           -45.0790905720        7.6164175841       -7.2573063352  W2        4130            0.0000000000
     12389      4130  TIP3      H1            -46.0074005720        7.3846075841       -7.2843763352  W2        4130            0.0000000000
     12390      4130  TIP3      H2            -44.6279805720        6.8393975841       -7.5874263352  W2        4130            0.0000000000
     12391      4131  TIP3      OH2           -52.5357805720       11.9445775841      -11.1244363352  W2        4131            0.0000000000
     12392      4131  TIP3      H1            -52.0085605720       12.7180175841      -11.3245563352  W2        4131            0.0000000000
     12393      4131  TIP3      H2            -53.4159305720       12.1694975841      -11.4260363352  W2        4131            0.0000000000
     12394      4132  TIP3      OH2           -56.7810105720        6.8069875841      -16.5371963352  W2        4132            0.0000000000
     12395      4132  TIP3      H1            -56.1650205720        7.4337075841      -16.1577163352  W2        4132            0.0000000000
     12396      4132  TIP3      H2            -57.6427505720        7.1229675841      -16.2655463352  W2        4132            0.0000000000
     12397      4133  TIP3      OH2           -51.1085505720        9.6075675841      -11.5480063352  W2        4133            0.0000000000
     12398      4133  TIP3      H1            -51.3495505720       10.5330075841      -11.5064763352  W2        4133            0.0000000000
     12399      4133  TIP3      H2            -51.8491905720        9.1486975841      -11.1516163352  W2        4133            0.0000000000
     12400      4134  TIP3      OH2           -50.5938905720       13.7569275841       -5.2328963352  W2        4134            0.0000000000
     12401      4134  TIP3      H1            -50.2314205720       14.6114875841       -5.4664563352  W2        4134            0.0000000000
     12402      4134  TIP3      H2            -50.0623705720       13.4650875841       -4.4922663352  W2        4134            0.0000000000
     12403      4135  TIP3      OH2           -52.4254705720       14.6293275841      -12.0027863352  W2        4135            0.0000000000
     12404      4135  TIP3      H1            -53.3754205720       14.7350675841      -11.9514563352  W2        4135            0.0000000000
     12405      4135  TIP3      H2            -52.0736605720       15.4500675841      -11.6580363352  W2        4135            0.0000000000
     12406      4136  TIP3      OH2           -47.0498105720        9.8559975841       -5.5323363352  W2        4136            0.0000000000
     12407      4136  TIP3      H1            -47.4756805720        9.6281675841       -4.7059363352  W2        4136            0.0000000000
     12408      4136  TIP3      H2            -46.4692305720        9.1171775841       -5.7148063352  W2        4136            0.0000000000
     12409      4137  TIP3      OH2           -44.8469205720       10.7850475841      -16.4584363352  W2        4137            0.0000000000
     12410      4137  TIP3      H1            -44.4936105720       10.4050275841      -15.6540863352  W2        4137            0.0000000000
     12411      4137  TIP3      H2            -45.7955705720       10.6915275841      -16.3715063352  W2        4137            0.0000000000
     12412      4138  TIP3      OH2           -44.3913905720       14.4079475841       -3.0628563352  W2        4138            0.0000000000
     12413      4138  TIP3      H1            -44.9930705720       13.8522375841       -3.5582263352  W2        4138            0.0000000000
     12414      4138  TIP3      H2            -44.1100205720       15.0749275841       -3.6891163352  W2        4138            0.0000000000
     12415      4139  TIP3      OH2           -40.3434805720       15.2642975841      -16.2574163352  W2        4139            0.0000000000
     12416      4139  TIP3      H1            -39.5996905720       15.8503475841      -16.3972563352  W2        4139            0.0000000000
     12417      4139  TIP3      H2            -41.0376705720       15.8328775841      -15.9241763352  W2        4139            0.0000000000
     12418      4140  TIP3      OH2           -56.2688005720        1.6407175841       -3.6555963352  W2        4140            0.0000000000
     12419      4140  TIP3      H1            -57.1615705720        1.9792575841       -3.7231963352  W2        4140            0.0000000000
     12420      4140  TIP3      H2            -56.3675205720        0.7853275841       -3.2375163352  W2        4140            0.0000000000
     12421      4141  TIP3      OH2           -43.9809905720        9.4572475841      -14.2316463352  W2        4141            0.0000000000
     12422      4141  TIP3      H1            -44.2582305720        8.7291775841      -13.6755363352  W2        4141            0.0000000000
     12423      4141  TIP3      H2            -43.0536905720        9.5764475841      -14.0263863352  W2        4141            0.0000000000
     12424      4142  TIP3      OH2           -56.6176005720       13.4451575841       -5.2206563352  W2        4142            0.0000000000
     12425      4142  TIP3      H1            -56.4005705720       12.5133975841       -5.2516863352  W2        4142            0.0000000000
     12426      4142  TIP3      H2            -56.3712505720       13.7196575841       -4.3373763352  W2        4142            0.0000000000
     12427      4143  TIP3      OH2           -50.7561405720       11.8966575841      -18.0114363352  W2        4143            0.0000000000
     12428      4143  TIP3      H1            -50.5171605720       11.1484675841      -18.5585463352  W2        4143            0.0000000000
     12429      4143  TIP3      H2            -51.0250105720       11.5088275841      -17.1786563352  W2        4143            0.0000000000
     12430      4144  TIP3      OH2           -51.8190805720       11.4670375841      -15.5551763352  W2        4144            0.0000000000
     12431      4144  TIP3      H1            -51.6722805720       10.9470175841      -14.7650863352  W2        4144            0.0000000000
     12432      4144  TIP3      H2            -51.8219105720       12.3737975841      -15.2485863352  W2        4144            0.0000000000
     12433      4145  TIP3      OH2           -55.3659705720        8.7193675841      -15.0446363352  W2        4145            0.0000000000
     12434      4145  TIP3      H1            -56.0520405720        9.0716175841      -14.4776663352  W2        4145            0.0000000000
     12435      4145  TIP3      H2            -54.8431805720        9.4823275841      -15.2912063352  W2        4145            0.0000000000
     12436      4146  TIP3      OH2           -47.5344605720        1.3817475841       -4.7657363352  W2        4146            0.0000000000
     12437      4146  TIP3      H1            -46.8356705720        1.4556175841       -4.1157663352  W2        4146            0.0000000000
     12438      4146  TIP3      H2            -47.9153205720        0.5172475841       -4.6114463352  W2        4146            0.0000000000
     12439      4147  TIP3      OH2           -46.7499705720        1.0339175841      -13.6685063352  W2        4147            0.0000000000
     12440      4147  TIP3      H1            -46.5301405720        1.5054575841      -14.4719663352  W2        4147            0.0000000000
     12441      4147  TIP3      H2            -46.1915705720        1.4281775841      -12.9984463352  W2        4147            0.0000000000
     12442      4148  TIP3      OH2           -49.0813605720       13.1643975841      -14.8057563352  W2        4148            0.0000000000
     12443      4148  TIP3      H1            -49.8977505720       13.6613675841      -14.7533263352  W2        4148            0.0000000000
     12444      4148  TIP3      H2            -48.5517305720       13.6397475841      -15.4458763352  W2        4148            0.0000000000
     12445      4149  TIP3      OH2           -49.5499805720        2.7617975841      -12.8336663352  W2        4149            0.0000000000
     12446      4149  TIP3      H1            -48.7377205720        3.2661175841      -12.7874963352  W2        4149            0.0000000000
     12447      4149  TIP3      H2            -49.7946805720        2.6167675841      -11.9197063352  W2        4149            0.0000000000
     12448      4150  TIP3      OH2           -49.0143405720        3.7480675841       -3.6490063352  W2        4150            0.0000000000
     12449      4150  TIP3      H1            -48.8953105720        4.3216075841       -2.8919663352  W2        4150            0.0000000000
     12450      4150  TIP3      H2            -48.3588805720        3.0600075841       -3.5342263352  W2        4150            0.0000000000
     12451      4151  TIP3      OH2           -48.6663105720       -0.1569024159      -11.8955563352  W2        4151            0.0000000000
     12452      4151  TIP3      H1            -49.0129605720        0.4601575841      -11.2511263352  W2        4151            0.0000000000
     12453      4151  TIP3      H2            -48.0076205720        0.3436675841      -12.3770063352  W2        4151            0.0000000000
     12454      4152  TIP3      OH2           -51.7430505720       14.2081175841      -14.8240663352  W2        4152            0.0000000000
     12455      4152  TIP3      H1            -51.5821805720       15.0078675841      -15.3248063352  W2        4152            0.0000000000
     12456      4152  TIP3      H2            -51.9402705720       14.5147175841      -13.9390063352  W2        4152            0.0000000000
     12457      4153  TIP3      OH2           -53.0086105720        0.9060375841      -15.2083063352  W2        4153            0.0000000000
     12458      4153  TIP3      H1            -53.0921305720        1.7943475841      -14.8616663352  W2        4153            0.0000000000
     12459      4153  TIP3      H2            -52.1185805720        0.6407075841      -14.9766263352  W2        4153            0.0000000000
     12460      4154  TIP3      OH2           -42.8097605720        1.6550975841       -2.8140363352  W2        4154            0.0000000000
     12461      4154  TIP3      H1            -43.7261805720        1.9172675841       -2.9016663352  W2        4154            0.0000000000
     12462      4154  TIP3      H2            -42.4742605720        1.6519975841       -3.7105063352  W2        4154            0.0000000000
     12463      4155  TIP3      OH2           -44.2076605720        5.4051975841       -8.7183063352  W2        4155            0.0000000000
     12464      4155  TIP3      H1            -45.0052205720        4.9902175841       -9.0468063352  W2        4155            0.0000000000
     12465      4155  TIP3      H2            -43.7625505720        4.7145675841       -8.2272563352  W2        4155            0.0000000000
     12466      4156  TIP3      OH2           -54.7500805720       11.3332575841      -16.1478563352  W2        4156            0.0000000000
     12467      4156  TIP3      H1            -54.1579305720       12.0327375841      -15.8716163352  W2        4156            0.0000000000
     12468      4156  TIP3      H2            -54.2907805720       10.9002075841      -16.8673963352  W2        4156            0.0000000000
     12469      4157  TIP3      OH2           -56.4341605720        3.9975575841      -17.0319163352  W2        4157            0.0000000000
     12470      4157  TIP3      H1            -56.4789005720        4.9368675841      -16.8532163352  W2        4157            0.0000000000
     12471      4157  TIP3      H2            -57.3218405720        3.7620475841      -17.3017063352  W2        4157            0.0000000000
     12472      4158  TIP3      OH2           -43.1212005720       14.6614475841       -7.0959563352  W2        4158            0.0000000000
     12473      4158  TIP3      H1            -43.2767705720       15.3398875841       -7.7530263352  W2        4158            0.0000000000
     12474      4158  TIP3      H2            -42.1885605720       14.7333775841       -6.8928963352  W2        4158            0.0000000000
     12475      4159  TIP3      OH2           -55.6259605720       -1.2207824159       -8.3588163352  W2        4159            0.0000000000
     12476      4159  TIP3      H1            -55.8549805720       -1.1615324159       -9.2863163352  W2        4159            0.0000000000
     12477      4159  TIP3      H2            -56.0686205720       -2.0122324159       -8.0524063352  W2        4159            0.0000000000
     12478      4160  TIP3      OH2           -56.6956305720       12.7199275841      -12.1982363352  W2        4160            0.0000000000
     12479      4160  TIP3      H1            -57.5277705720       13.1921975841      -12.1710963352  W2        4160            0.0000000000
     12480      4160  TIP3      H2            -56.1498005720       13.2296875841      -12.7969263352  W2        4160            0.0000000000
     12481      4161  TIP3      OH2           -57.4072605720       15.3322975841       -0.8684363352  W2        4161            0.0000000000
     12482      4161  TIP3      H1            -56.8670405720       15.1156975841       -0.1085163352  W2        4161            0.0000000000
     12483      4161  TIP3      H2            -57.8884605720       14.5268975841       -1.0581863352  W2        4161            0.0000000000
     12484      4162  TIP3      OH2           -52.8099205720       14.2517375841        0.7519836648  W2        4162            0.0000000000
     12485      4162  TIP3      H1            -52.0422005720       13.7928175841        1.0929036648  W2        4162            0.0000000000
     12486      4162  TIP3      H2            -52.8313005720       14.0257175841       -0.1778963352  W2        4162            0.0000000000
     12487      4163  TIP3      OH2           -48.7179605720       13.7597975841      -17.8728363352  W2        4163            0.0000000000
     12488      4163  TIP3      H1            -49.3618605720       13.1286575841      -17.5514663352  W2        4163            0.0000000000
     12489      4163  TIP3      H2            -47.9561305720       13.2285975841      -18.1044863352  W2        4163            0.0000000000
     12490      4164  TIP3      OH2           -46.2330505720       12.6318475841       -0.5188663352  W2        4164            0.0000000000
     12491      4164  TIP3      H1            -46.5841005720       11.7751475841       -0.2758263352  W2        4164            0.0000000000
     12492      4164  TIP3      H2            -45.5067305720       12.7745175841        0.0880336648  W2        4164            0.0000000000
     12493      4165  TIP3      OH2           -44.1136705720       13.5767875841      -17.6390363352  W2        4165            0.0000000000
     12494      4165  TIP3      H1            -43.8306305720       12.7823075841      -17.1863463352  W2        4165            0.0000000000
     12495      4165  TIP3      H2            -43.3738805720       13.8098875841      -18.1999263352  W2        4165            0.0000000000
     12496      4166  TIP3      OH2           -57.5003105720        9.1427075841        0.0859936648  W2        4166            0.0000000000
     12497      4166  TIP3      H1            -57.3562605720        8.2407775841       -0.2003363352  W2        4166            0.0000000000
     12498      4166  TIP3      H2            -58.2725705720        9.4289175841       -0.4017763352  W2        4166            0.0000000000
     12499      4167  TIP3      OH2           -53.1589405720        9.4862775841      -17.7815463352  W2        4167            0.0000000000
     12500      4167  TIP3      H1            -53.0945305720        8.6922375841      -17.2509063352  W2        4167            0.0000000000
     12501      4167  TIP3      H2            -52.5060205720        9.3675575841      -18.4713463352  W2        4167            0.0000000000
     12502      4168  TIP3      OH2           -50.8447005720        9.1125175841       -0.4813663352  W2        4168            0.0000000000
     12503      4168  TIP3      H1            -51.1733205720        9.3833275841       -1.3386263352  W2        4168            0.0000000000
     12504      4168  TIP3      H2            -50.6928805720        8.1714975841       -0.5688663352  W2        4168            0.0000000000
     12505      4169  TIP3      OH2           -47.8066005720       10.5334475841      -18.0457463352  W2        4169            0.0000000000
     12506      4169  TIP3      H1            -48.0751905720       10.7136575841      -17.1448563352  W2        4169            0.0000000000
     12507      4169  TIP3      H2            -48.0130405720        9.6080675841      -18.1771663352  W2        4169            0.0000000000
     12508      4170  TIP3      OH2           -45.1101805720        9.0282475841       -3.0981363352  W2        4170            0.0000000000
     12509      4170  TIP3      H1            -44.3647005720        9.6166175841       -3.2177363352  W2        4170            0.0000000000
     12510      4170  TIP3      H2            -45.8675005720        9.6102175841       -3.0348263352  W2        4170            0.0000000000
     12511      4171  TIP3      OH2           -56.6676605720        6.3430375841       -0.4940763352  W2        4171            0.0000000000
     12512      4171  TIP3      H1            -56.2595405720        5.4856975841       -0.6150163352  W2        4171            0.0000000000
     12513      4171  TIP3      H2            -56.9279005720        6.3571675841        0.4269536648  W2        4171            0.0000000000
     12514      4172  TIP3      OH2           -52.0095605720        7.4588975841      -15.4757463352  W2        4172            0.0000000000
     12515      4172  TIP3      H1            -52.4693605720        6.9747275841      -14.7898963352  W2        4172            0.0000000000
     12516      4172  TIP3      H2            -51.7546905720        6.7904375841      -16.1116963352  W2        4172            0.0000000000
     12517      4173  TIP3      OH2           -52.7206305720        5.3516075841       -3.1197863352  W2        4173            0.0000000000
     12518      4173  TIP3      H1            -53.3390205720        6.0262675841       -2.8393163352  W2        4173            0.0000000000
     12519      4173  TIP3      H2            -52.3765105720        5.6729975841       -3.9531663352  W2        4173            0.0000000000
     12520      4174  TIP3      OH2           -50.9385205720        5.7020775841      -17.2134263352  W2        4174            0.0000000000
     12521      4174  TIP3      H1            -51.1190205720        5.5471975841      -18.1405963352  W2        4174            0.0000000000
     12522      4174  TIP3      H2            -49.9884705720        5.8099475841      -17.1686363352  W2        4174            0.0000000000
     12523      4175  TIP3      OH2           -47.7008105720        7.8231375841        0.1576936648  W2        4175            0.0000000000
     12524      4175  TIP3      H1            -46.7476905720        7.9070475841        0.1302936648  W2        4175            0.0000000000
     12525      4175  TIP3      H2            -47.8613505720        7.1113175841        0.7771836648  W2        4175            0.0000000000
     12526      4176  TIP3      OH2           -41.5486905720        8.0564975841      -17.7676163352  W2        4176            0.0000000000
     12527      4176  TIP3      H1            -41.8222105720        7.6320475841      -18.5807863352  W2        4176            0.0000000000
     12528      4176  TIP3      H2            -41.5092805720        8.9879475841      -17.9845763352  W2        4176            0.0000000000
     12529      4177  TIP3      OH2           -52.3812605720        2.7066875841       -2.0374763352  W2        4177            0.0000000000
     12530      4177  TIP3      H1            -52.2311705720        1.9778175841       -2.6395063352  W2        4177            0.0000000000
     12531      4177  TIP3      H2            -52.3790205720        3.4838575841       -2.5962563352  W2        4177            0.0000000000
     12532      4178  TIP3      OH2           -51.9686905720        1.0762675841       -4.5447363352  W2        4178            0.0000000000
     12533      4178  TIP3      H1            -51.4329405720        1.5279375841       -5.1968063352  W2        4178            0.0000000000
     12534      4178  TIP3      H2            -52.8207305720        0.9682475841       -4.9673263352  W2        4178            0.0000000000
     12535      4179  TIP3      OH2           -50.3868505720        6.5158875841       -4.3052163352  W2        4179            0.0000000000
     12536      4179  TIP3      H1            -49.6363705720        6.3596375841       -4.8784363352  W2        4179            0.0000000000
     12537      4179  TIP3      H2            -50.7260205720        7.3675475841       -4.5806663352  W2        4179            0.0000000000
     12538      4180  TIP3      OH2           -45.9712305720        4.3310675841        0.7233136648  W2        4180            0.0000000000
     12539      4180  TIP3      H1            -45.7791005720        3.4000075841        0.6117636648  W2        4180            0.0000000000
     12540      4180  TIP3      H2            -45.1136005720        4.7560175841        0.7128536648  W2        4180            0.0000000000
     12541      4181  TIP3      OH2           -44.6545105720        7.1195875841       -1.1994163352  W2        4181            0.0000000000
     12542      4181  TIP3      H1            -44.9360105720        7.8290475841       -1.7770363352  W2        4181            0.0000000000
     12543      4181  TIP3      H2            -43.7120805720        7.0468875841       -1.3502963352  W2        4181            0.0000000000
     12544      4182  TIP3      OH2           -53.9026305720        3.9050375841       -0.1259163352  W2        4182            0.0000000000
     12545      4182  TIP3      H1            -54.6697305720        3.3725175841       -0.3361563352  W2        4182            0.0000000000
     12546      4182  TIP3      H2            -53.2237305720        3.5950775841       -0.7252863352  W2        4182            0.0000000000
     12547      4183  TIP3      OH2           -51.1631405720       -1.4671624159       -4.1133763352  W2        4183            0.0000000000
     12548      4183  TIP3      H1            -51.2611805720       -0.5208424159       -4.2187563352  W2        4183            0.0000000000
     12549      4183  TIP3      H2            -51.9055205720       -1.8397824159       -4.5890263352  W2        4183            0.0000000000
     12550      4184  TIP3      OH2           -49.8990905720        2.8543775841       -0.5495363352  W2        4184            0.0000000000
     12551      4184  TIP3      H1            -50.1345505720        2.6350475841        0.3519536648  W2        4184            0.0000000000
     12552      4184  TIP3      H2            -50.6824005720        2.6474975841       -1.0592863352  W2        4184            0.0000000000
     12553      4185  TIP3      OH2           -47.1834305720        1.9817275841       -1.4741863352  W2        4185            0.0000000000
     12554      4185  TIP3      H1            -48.1308905720        2.0136975841       -1.3418563352  W2        4185            0.0000000000
     12555      4185  TIP3      H2            -46.8707605720        1.3564375841       -0.8203663352  W2        4185            0.0000000000
     12556      4186  TIP3      OH2           -45.5492805720        0.6158375841        0.5310036648  W2        4186            0.0000000000
     12557      4186  TIP3      H1            -45.6461005720       -0.3364324159        0.5251936648  W2        4186            0.0000000000
     12558      4186  TIP3      H2            -45.8709705720        0.8845175841        1.3915536648  W2        4186            0.0000000000
     12559      4187  TIP3      OH2           -55.7223505720        1.8254175841       -0.4214463352  W2        4187            0.0000000000
     12560      4187  TIP3      H1            -55.5106105720        1.1190275841       -1.0316963352  W2        4187            0.0000000000
     12561      4187  TIP3      H2            -55.8336005720        1.3880175841        0.4226736648  W2        4187            0.0000000000
     12562      4188  TIP3      OH2           -50.9413305720       -2.1734224159       -1.4420963352  W2        4188            0.0000000000
     12563      4188  TIP3      H1            -50.2294905720       -2.8132024159       -1.4561863352  W2        4188            0.0000000000
     12564      4188  TIP3      H2            -51.0422905720       -1.9065924159       -2.3557863352  W2        4188            0.0000000000
     12565      4189  TIP3      OH2           -50.5875805720       -0.4905824159        0.6115336648  W2        4189            0.0000000000
     12566      4189  TIP3      H1            -50.7193605720       -0.9662024159       -0.2086163352  W2        4189            0.0000000000
     12567      4189  TIP3      H2            -51.1868405720        0.2537775841        0.5562436648  W2        4189            0.0000000000
     12568      4190  TIP3      OH2           -51.0413505720       16.3924475841      -16.2120663352  W2        4190            0.0000000000
     12569      4190  TIP3      H1            -50.1082805720       16.5503175841      -16.0682263352  W2        4190            0.0000000000
     12570      4190  TIP3      H2            -51.3054705720       17.0677475841      -16.8369163352  W2        4190            0.0000000000
     12571      4191  TIP3      OH2           -57.4728605720       11.0288275841      -16.7292563352  W2        4191            0.0000000000
     12572      4191  TIP3      H1            -56.5589405720       11.1077175841      -16.4558663352  W2        4191            0.0000000000
     12573      4191  TIP3      H2            -57.4655505720       10.3417875841      -17.3956963352  W2        4191            0.0000000000
     12574      4192  TIP3      OH2           -58.8238005720       16.4216775841      -11.6518663352  W2        4192            0.0000000000
     12575      4192  TIP3      H1            -59.4710905720       15.9598475841      -12.1847463352  W2        4192            0.0000000000
     12576      4192  TIP3      H2            -58.4693405720       15.7500075841      -11.0692463352  W2        4192            0.0000000000
     12577      4193  TIP3      OH2           -57.9538805720       14.5023775841       -9.8472463352  W2        4193            0.0000000000
     12578      4193  TIP3      H1            -58.2882005720       13.6221075841       -9.6752263352  W2        4193            0.0000000000
     12579      4193  TIP3      H2            -57.7316405720       14.8478775841       -8.9826863352  W2        4193            0.0000000000
     12580      4194  TIP3      OH2           -40.4054005720       15.3120175841       -6.8667663352  W2        4194            0.0000000000
     12581      4194  TIP3      H1            -40.4267305720       15.4968575841       -5.9278263352  W2        4194            0.0000000000
     12582      4194  TIP3      H2            -39.7147805720       15.8804175841       -7.2076263352  W2        4194            0.0000000000
     12583      4195  TIP3      OH2           -40.8421105720       14.8791275841       -3.9448563352  W2        4195            0.0000000000
     12584      4195  TIP3      H1            -41.3292405720       14.1435375841       -4.3161163352  W2        4195            0.0000000000
     12585      4195  TIP3      H2            -40.2928405720       14.4855175841       -3.2669163352  W2        4195            0.0000000000
     12586      4196  TIP3      OH2           -42.3913805720       10.6689375841        0.6931736648  W2        4196            0.0000000000
     12587      4196  TIP3      H1            -43.2572705720       10.5639075841        1.0874036648  W2        4196            0.0000000000
     12588      4196  TIP3      H2            -42.0147905720       11.4272675841        1.1396436648  W2        4196            0.0000000000
     12589      4197  TIP3      OH2           -41.0904105720        8.9253075841      -13.7925763352  W2        4197            0.0000000000
     12590      4197  TIP3      H1            -40.2402705720        9.3463975841      -13.6654163352  W2        4197            0.0000000000
     12591      4197  TIP3      H2            -41.0849005720        8.1853175841      -13.1854363352  W2        4197            0.0000000000
     12592      4198  TIP3      OH2           -40.6958505720        6.9790475841      -11.9690063352  W2        4198            0.0000000000
     12593      4198  TIP3      H1            -41.4223905720        6.4993075841      -11.5712463352  W2        4198            0.0000000000
     12594      4198  TIP3      H2            -40.1145205720        7.1845175841      -11.2368463352  W2        4198            0.0000000000
     12595      4199  TIP3      OH2           -40.9367305720        9.7637975841       -7.0212463352  W2        4199            0.0000000000
     12596      4199  TIP3      H1            -40.1033105720        9.3857975841       -7.3018863352  W2        4199            0.0000000000
     12597      4199  TIP3      H2            -40.8247005720       10.7069175841       -7.1403363352  W2        4199            0.0000000000
     12598      4200  TIP3      OH2           -42.4505005720       12.6415475841       -4.7144063352  W2        4200            0.0000000000
     12599      4200  TIP3      H1            -43.0979705720       12.9666975841       -4.0888863352  W2        4200            0.0000000000
     12600      4200  TIP3      H2            -42.9681005720       12.2013175841       -5.3885763352  W2        4200            0.0000000000
     12601      4201  TIP3      OH2           -40.4275405720        6.8798975841      -15.5778763352  W2        4201            0.0000000000
     12602      4201  TIP3      H1            -40.9494305720        7.2363075841      -16.2967863352  W2        4201            0.0000000000
     12603      4201  TIP3      H2            -40.4606205720        7.5546775841      -14.8997863352  W2        4201            0.0000000000
     12604      4202  TIP3      OH2           -42.0786405720        4.1194575841      -17.0271663352  W2        4202            0.0000000000
     12605      4202  TIP3      H1            -41.9822005720        4.7861575841      -17.7071963352  W2        4202            0.0000000000
     12606      4202  TIP3      H2            -42.2186805720        3.3040875841      -17.5086163352  W2        4202            0.0000000000
     12607      4203  TIP3      OH2           -42.9091705720        5.4996975841      -11.4061363352  W2        4203            0.0000000000
     12608      4203  TIP3      H1            -43.0592905720        4.5545575841      -11.4263563352  W2        4203            0.0000000000
     12609      4203  TIP3      H2            -43.2627205720        5.7808375841      -10.5622263352  W2        4203            0.0000000000
     12610      4204  TIP3      OH2           -57.8739305720        7.5779175841       -7.3957563352  W2        4204            0.0000000000
     12611      4204  TIP3      H1            -57.6896405720        7.4960875841       -8.3314663352  W2        4204            0.0000000000
     12612      4204  TIP3      H2            -57.0246405720        7.4536175841       -6.9721163352  W2        4204            0.0000000000
     12613      4205  TIP3      OH2           -42.0528805720        7.4700275841       -1.7673063352  W2        4205            0.0000000000
     12614      4205  TIP3      H1            -41.4701505720        6.7352575841       -1.5755863352  W2        4205            0.0000000000
     12615      4205  TIP3      H2            -41.4889505720        8.2420575841       -1.7207263352  W2        4205            0.0000000000
     12616      4206  TIP3      OH2           -40.5561705720        5.3726075841       -1.0827663352  W2        4206            0.0000000000
     12617      4206  TIP3      H1            -41.4195005720        4.9938175841       -1.2482963352  W2        4206            0.0000000000
     12618      4206  TIP3      H2            -39.9518005720        4.6340875841       -1.1571863352  W2        4206            0.0000000000
     12619      4207  TIP3      OH2           -42.8312605720        1.5274375841      -17.9096163352  W2        4207            0.0000000000
     12620      4207  TIP3      H1            -42.2206805720        1.1561175841      -17.2727963352  W2        4207            0.0000000000
     12621      4207  TIP3      H2            -43.6681105720        1.1061275841      -17.7136163352  W2        4207            0.0000000000
     12622      4208  TIP3      OH2           -43.1986905720        3.0822775841      -12.9436263352  W2        4208            0.0000000000
     12623      4208  TIP3      H1            -42.9189805720        2.1753175841      -12.8194563352  W2        4208            0.0000000000
     12624      4208  TIP3      H2            -42.4395205720        3.5164275841      -13.3327063352  W2        4208            0.0000000000
     12625      4209  TIP3      OH2           -42.5868605720        3.6640175841       -7.5077363352  W2        4209            0.0000000000
     12626      4209  TIP3      H1            -41.6540605720        3.8760075841       -7.5421363352  W2        4209            0.0000000000
     12627      4209  TIP3      H2            -42.8221105720        3.7652275841       -6.5854363352  W2        4209            0.0000000000
     12628      4210  TIP3      OH2           -42.5576705720        4.4005475841       -4.7317963352  W2        4210            0.0000000000
     12629      4210  TIP3      H1            -43.4005405720        4.6685875841       -4.3658163352  W2        4210            0.0000000000
     12630      4210  TIP3      H2            -42.1152405720        5.2227375841       -4.9426863352  W2        4210            0.0000000000
     12631      4211  TIP3      OH2           -58.2764505720        2.8484175841       -1.2548763352  W2        4211            0.0000000000
     12632      4211  TIP3      H1            -57.3569605720        2.7262475841       -1.0185663352  W2        4211            0.0000000000
     12633      4211  TIP3      H2            -58.7260005720        2.0983875841       -0.8655263352  W2        4211            0.0000000000
     12634      4212  TIP3      OH2           -40.2745105720       -1.6194324159        0.6217036648  W2        4212            0.0000000000
     12635      4212  TIP3      H1            -39.9248105720       -2.2730824159        0.0161736648  W2        4212            0.0000000000
     12636      4212  TIP3      H2            -40.1275605720       -0.7820224159        0.1819636648  W2        4212            0.0000000000
     12637      4213  TIP3      OH2           -42.5852105720        0.3452075841      -12.8954263352  W2        4213            0.0000000000
     12638      4213  TIP3      H1            -42.4027105720       -0.1036424159      -12.0699263352  W2        4213            0.0000000000
     12639      4213  TIP3      H2            -43.1849205720       -0.2393524159      -13.3589663352  W2        4213            0.0000000000
     12640      4214  TIP3      OH2           -57.0552005720        1.1605775841       -8.3635863352  W2        4214            0.0000000000
     12641      4214  TIP3      H1            -56.6100405720        0.3688275841       -8.0616163352  W2        4214            0.0000000000
     12642      4214  TIP3      H2            -56.5889005720        1.8770975841       -7.9330263352  W2        4214            0.0000000000
     12643      4215  TIP3      OH2           -58.7511705720        4.1598775841       -7.2945663352  W2        4215            0.0000000000
     12644      4215  TIP3      H1            -58.2591905720        3.9389275841       -8.0853663352  W2        4215            0.0000000000
     12645      4215  TIP3      H2            -58.3890805720        5.0002175841       -7.0136163352  W2        4215            0.0000000000
     12646      4216  TIP3      OH2           -40.7547905720        0.4900275841       -1.0291663352  W2        4216            0.0000000000
     12647      4216  TIP3      H1            -41.6722205720        0.7607375841       -1.0648163352  W2        4216            0.0000000000
     12648      4216  TIP3      H2            -40.6318505720       -0.0451324159       -1.8131963352  W2        4216            0.0000000000
     12649      4217  TIP3      OH2           -40.7185905720        0.4130175841      -16.3673963352  W2        4217            0.0000000000
     12650      4217  TIP3      H1            -40.3063305720       -0.3084124159      -16.8425963352  W2        4217            0.0000000000
     12651      4217  TIP3      H2            -40.0369405720        1.0824775841      -16.3089663352  W2        4217            0.0000000000
     12652      4218  TIP3      OH2           -58.4375205720        0.4177875841      -13.2403263352  W2        4218            0.0000000000
     12653      4218  TIP3      H1            -59.3626805720        0.6264475841      -13.3697763352  W2        4218            0.0000000000
     12654      4218  TIP3      H2            -57.9835305720        0.9018675841      -13.9300963352  W2        4218            0.0000000000
     12655      4219  TIP3      OH2           -43.6668005720       15.4019575841      -11.2945863352  W2        4219            0.0000000000
     12656      4219  TIP3      H1            -43.0145105720       15.0541675841      -11.9026763352  W2        4219            0.0000000000
     12657      4219  TIP3      H2            -43.1564205720       15.8902775841      -10.6486163352  W2        4219            0.0000000000
     12658      4220  TIP3      OH2           -58.4739805720       -0.8443124159       -4.8960763352  W2        4220            0.0000000000
     12659      4220  TIP3      H1            -59.1389305720       -1.0902824159       -4.2529863352  W2        4220            0.0000000000
     12660      4220  TIP3      H2            -58.9168505720       -0.2222724159       -5.4732763352  W2        4220            0.0000000000
     12661      4221  TIP3      OH2           -56.2820505720       12.3310975841       -0.7514963352  W2        4221            0.0000000000
     12662      4221  TIP3      H1            -57.1028005720       12.5057475841       -1.2120263352  W2        4221            0.0000000000
     12663      4221  TIP3      H2            -56.5342705720       12.2575675841        0.1689436648  W2        4221            0.0000000000
     12664      4222  TIP3      OH2           -53.3277605720       13.3052175841       -4.4930963352  W2        4222            0.0000000000
     12665      4222  TIP3      H1            -53.7526505720       14.1150675841       -4.7756363352  W2        4222            0.0000000000
     12666      4222  TIP3      H2            -52.4234805720       13.3906275841       -4.7951163352  W2        4222            0.0000000000
     12667      4223  TIP3      OH2           -49.0166205720       14.7042175841       -1.5337263352  W2        4223            0.0000000000
     12668      4223  TIP3      H1            -48.8318705720       14.3708275841       -0.6556963352  W2        4223            0.0000000000
     12669      4223  TIP3      H2            -48.1701705720       15.0140775841       -1.8558063352  W2        4223            0.0000000000
     12670      4224  TIP3      OH2           -46.6715805720       15.9901075841       -2.2895863352  W2        4224            0.0000000000
     12671      4224  TIP3      H1            -45.9946905720       15.3573375841       -2.5296663352  W2        4224            0.0000000000
     12672      4224  TIP3      H2            -46.3497005720       16.3911575841       -1.4822563352  W2        4224            0.0000000000
     12673      4225  TIP3      OH2           -41.7542005720       -1.4203424159       -3.2100863352  W2        4225            0.0000000000
     12674      4225  TIP3      H1            -42.5668505720       -1.0953124159       -3.5976163352  W2        4225            0.0000000000
     12675      4225  TIP3      H2            -41.5213505720       -2.1804924159       -3.7431763352  W2        4225            0.0000000000
     12676      4226  TIP3      OH2           -55.9260905720       16.5616075841       -4.4455663352  W2        4226            0.0000000000
     12677      4226  TIP3      H1            -56.6464505720       17.0017075841       -4.8967963352  W2        4226            0.0000000000
     12678      4226  TIP3      H2            -56.2916905720       16.3110775841       -3.5971663352  W2        4226            0.0000000000
     12679      4227  TIP3      OH2           -53.4588305720       16.1619975841       -5.4158463352  W2        4227            0.0000000000
     12680      4227  TIP3      H1            -54.3236105720       16.2338475841       -5.0118363352  W2        4227            0.0000000000
     12681      4227  TIP3      H2            -53.5139305720       16.7087275841       -6.1995963352  W2        4227            0.0000000000
     12682      4228  TIP3      OH2           -48.7482705720       16.0498875841       -6.2402463352  W2        4228            0.0000000000
     12683      4228  TIP3      H1            -49.2048705720       16.5788575841       -6.8944063352  W2        4228            0.0000000000
     12684      4228  TIP3      H2            -48.5854705720       16.6530275841       -5.5150163352  W2        4228            0.0000000000
     12685      4229  TIP3      OH2           -46.4206405720       14.9278475841       -5.2952163352  W2        4229            0.0000000000
     12686      4229  TIP3      H1            -47.3252705720       15.0928675841       -5.5610063352  W2        4229            0.0000000000
     12687      4229  TIP3      H2            -45.9917805720       15.7810675841       -5.3608763352  W2        4229            0.0000000000
     12688      4230  TIP3      OH2           -43.8164505720       16.4977575841       -5.0004363352  W2        4230            0.0000000000
     12689      4230  TIP3      H1            -43.9982505720       17.4136475841       -5.2109463352  W2        4230            0.0000000000
     12690      4230  TIP3      H2            -43.6396705720       16.0874675841       -5.8469763352  W2        4230            0.0000000000
     12691      4231  TIP3      OH2           -56.5112805720       15.1848575841       -7.5353863352  W2        4231            0.0000000000
     12692      4231  TIP3      H1            -56.5296805720       14.7593675841       -6.6781563352  W2        4231            0.0000000000
     12693      4231  TIP3      H2            -55.7064905720       14.8663575841       -7.9441663352  W2        4231            0.0000000000
     12694      4232  TIP3      OH2           -54.3699705720       13.8947275841       -8.8803963352  W2        4232            0.0000000000
     12695      4232  TIP3      H1            -54.5889005720       12.9784675841       -8.7107963352  W2        4232            0.0000000000
     12696      4232  TIP3      H2            -53.5457505720       14.0347675841       -8.4142563352  W2        4232            0.0000000000
     12697      4233  TIP3      OH2           -51.8327205720       14.3646575841       -8.0315963352  W2        4233            0.0000000000
     12698      4233  TIP3      H1            -51.6201505720       13.4765575841       -8.3185063352  W2        4233            0.0000000000
     12699      4233  TIP3      H2            -51.7682105720       14.3304275841       -7.0771963352  W2        4233            0.0000000000
     12700      4234  TIP3      OH2           -48.3243505720        0.0287175841       -8.8872663352  W2        4234            0.0000000000
     12701      4234  TIP3      H1            -48.9986705720       -0.6007224159       -8.6316863352  W2        4234            0.0000000000
     12702      4234  TIP3      H2            -47.7604305720       -0.4553924159       -9.4904763352  W2        4234            0.0000000000
     12703      4235  TIP3      OH2           -43.1816305720       -1.8638824159       -8.7745563352  W2        4235            0.0000000000
     12704      4235  TIP3      H1            -42.5778705720       -1.3163424159       -9.2764563352  W2        4235            0.0000000000
     12705      4235  TIP3      H2            -44.0514305720       -1.5448424159       -9.0151463352  W2        4235            0.0000000000
     12706      4236  TIP3      OH2           -41.4545905720       -0.7250124159      -10.4414663352  W2        4236            0.0000000000
     12707      4236  TIP3      H1            -40.8428405720       -1.2394424159      -10.9681063352  W2        4236            0.0000000000
     12708      4236  TIP3      H2            -41.0722505720        0.1521975841      -10.4180263352  W2        4236            0.0000000000
     12709      4237  TIP3      OH2           -55.9976005720       -1.3372524159      -11.0652763352  W2        4237            0.0000000000
     12710      4237  TIP3      H1            -56.7746205720       -1.5717624159      -11.5726863352  W2        4237            0.0000000000
     12711      4237  TIP3      H2            -55.4672405720       -2.1340424159      -11.0564763352  W2        4237            0.0000000000
     12712      4238  TIP3      OH2           -57.1612605720       -1.5394424159      -15.2616663352  W2        4238            0.0000000000
     12713      4238  TIP3      H1            -56.7221905720       -0.9283924159      -15.8533163352  W2        4238            0.0000000000
     12714      4238  TIP3      H2            -57.7950205720       -1.0010324159      -14.7876663352  W2        4238            0.0000000000
     12715      4239  TIP3      OH2           -51.4183405720       -1.4105424159      -11.2519663352  W2        4239            0.0000000000
     12716      4239  TIP3      H1            -50.5440005720       -1.0221124159      -11.2815363352  W2        4239            0.0000000000
     12717      4239  TIP3      H2            -51.5542605720       -1.6257624159      -10.3292463352  W2        4239            0.0000000000
     12718      4240  TIP3      OH2           -45.8615005720       -1.3805624159       -9.6027963352  W2        4240            0.0000000000
     12719      4240  TIP3      H1            -45.7853405720       -1.2854024159      -10.5521963352  W2        4240            0.0000000000
     12720      4240  TIP3      H2            -46.1365805720       -2.2882724159       -9.4738863352  W2        4240            0.0000000000
     12721      4241  TIP3      OH2           -44.5082405720       -1.3547824159      -13.9102963352  W2        4241            0.0000000000
     12722      4241  TIP3      H1            -45.2111305720       -0.7398624159      -14.1201563352  W2        4241            0.0000000000
     12723      4241  TIP3      H2            -44.9531005720       -2.1921124159      -13.7792063352  W2        4241            0.0000000000
     12724      4242  TIP3      OH2           -57.2603105720       14.4087775841      -14.3641563352  W2        4242            0.0000000000
     12725      4242  TIP3      H1            -57.9453205720       14.3706675841      -15.0316463352  W2        4242            0.0000000000
     12726      4242  TIP3      H2            -57.2565905720       15.3215375841      -14.0759463352  W2        4242            0.0000000000
     12727      4243  TIP3      OH2           -55.3003505720        0.3767075841      -16.8192563352  W2        4243            0.0000000000
     12728      4243  TIP3      H1            -54.8090105720       -0.2530524159      -17.3467063352  W2        4243            0.0000000000
     12729      4243  TIP3      H2            -54.6767205720        0.6726475841      -16.1561363352  W2        4243            0.0000000000
     12730      4244  TIP3      OH2           -50.2743405720        0.6698575841      -14.3622063352  W2        4244            0.0000000000
     12731      4244  TIP3      H1            -50.0962105720        0.0231775841      -13.6793463352  W2        4244            0.0000000000
     12732      4244  TIP3      H2            -50.3277205720        1.5036275841      -13.8950963352  W2        4244            0.0000000000
     12733      4245  TIP3      OH2           -48.3959605720       15.6182675841      -15.9665363352  W2        4245            0.0000000000
     12734      4245  TIP3      H1            -47.5299405720       15.9850075841      -16.1447163352  W2        4245            0.0000000000
     12735      4245  TIP3      H2            -48.6426805720       15.1790675841      -16.7804563352  W2        4245            0.0000000000
     12736      4246  TIP3      OH2           -41.6870005720       15.1812975841      -13.2874263352  W2        4246            0.0000000000
     12737      4246  TIP3      H1            -41.8812905720       14.4335075841      -13.8524663352  W2        4246            0.0000000000
     12738      4246  TIP3      H2            -41.7259905720       15.9393075841      -13.8706363352  W2        4246            0.0000000000
     12739      4247  TIP3      OH2           -56.0398005720       -0.8230624159       -1.5476563352  W2        4247            0.0000000000
     12740      4247  TIP3      H1            -56.4059805720       -1.5888024159       -1.1051863352  W2        4247            0.0000000000
     12741      4247  TIP3      H2            -55.1269505720       -0.7940424159       -1.2611463352  W2        4247            0.0000000000
     12742      4248  TIP3      OH2           -54.0667205720       -1.4726224159       -0.0119463352  W2        4248            0.0000000000
     12743      4248  TIP3      H1            -53.1683605720       -1.7466024159       -0.1966063352  W2        4248            0.0000000000
     12744      4248  TIP3      H2            -54.4534105720       -2.2150224159        0.4523136648  W2        4248            0.0000000000
     12745      4249  TIP3      OH2           -55.4421905720       15.3288575841      -17.3389463352  W2        4249            0.0000000000
     12746      4249  TIP3      H1            -55.7097305720       15.6151475841      -16.4656363352  W2        4249            0.0000000000
     12747      4249  TIP3      H2            -54.6709305720       14.7827775841      -17.1866963352  W2        4249            0.0000000000
     12748      4250  TIP3      OH2           -45.6454905720       -2.1400924159        0.1703336648  W2        4250            0.0000000000
     12749      4250  TIP3      H1            -45.5687705720       -2.5660224159        1.0241036648  W2        4250            0.0000000000
     12750      4250  TIP3      H2            -44.7518305720       -2.1266224159       -0.1723163352  W2        4250            0.0000000000
     12751      4251  TIP3      OH2           -42.4693805720       13.9325375841       -1.1372463352  W2        4251            0.0000000000
     12752      4251  TIP3      H1            -43.2511905720       13.7463375841       -1.6571863352  W2        4251            0.0000000000
     12753      4251  TIP3      H2            -42.5413905720       14.8619675841       -0.9199963352  W2        4251            0.0000000000
     12754      4252  TIP3      OH2           -28.0633405720        7.8189775841      -11.1065263352  W2        4252            0.0000000000
     12755      4252  TIP3      H1            -27.9742305720        8.7627975841      -11.2388163352  W2        4252            0.0000000000
     12756      4252  TIP3      H2            -28.7015805720        7.5436175841      -11.7645863352  W2        4252            0.0000000000
     12757      4253  TIP3      OH2           -29.1302105720        7.0740475841       -7.6877063352  W2        4253            0.0000000000
     12758      4253  TIP3      H1            -29.1684605720        6.4276775841       -6.9827463352  W2        4253            0.0000000000
     12759      4253  TIP3      H2            -29.4525605720        6.6074875841       -8.4588363352  W2        4253            0.0000000000
     12760      4254  TIP3      OH2           -36.7617105720        6.6882575841       -6.0947163352  W2        4254            0.0000000000
     12761      4254  TIP3      H1            -36.7205005720        6.0625875841       -5.3714763352  W2        4254            0.0000000000
     12762      4254  TIP3      H2            -36.0589405720        7.3121175841       -5.9126763352  W2        4254            0.0000000000
     12763      4255  TIP3      OH2           -25.4241905720       10.0130875841       -9.3861963352  W2        4255            0.0000000000
     12764      4255  TIP3      H1            -25.8649205720        9.2926875841       -8.9356363352  W2        4255            0.0000000000
     12765      4255  TIP3      H2            -25.4372205720       10.7338075841       -8.7564263352  W2        4255            0.0000000000
     12766      4256  TIP3      OH2           -35.8384005720       11.1381475841       -7.5598063352  W2        4256            0.0000000000
     12767      4256  TIP3      H1            -36.2078805720       10.3361975841       -7.9293763352  W2        4256            0.0000000000
     12768      4256  TIP3      H2            -34.8972905720       10.9696375841       -7.5134663352  W2        4256            0.0000000000
     12769      4257  TIP3      OH2           -39.2283505720        4.7984075841      -12.1669263352  W2        4257            0.0000000000
     12770      4257  TIP3      H1            -39.6760105720        5.6442775841      -12.1852763352  W2        4257            0.0000000000
     12771      4257  TIP3      H2            -39.7892305720        4.2188275841      -12.6824163352  W2        4257            0.0000000000
     12772      4258  TIP3      OH2           -38.5177405720        6.9603675841      -10.0411263352  W2        4258            0.0000000000
     12773      4258  TIP3      H1            -38.3043905720        6.1905275841       -9.5138263352  W2        4258            0.0000000000
     12774      4258  TIP3      H2            -37.7799805720        7.0500375841      -10.6443663352  W2        4258            0.0000000000
     12775      4259  TIP3      OH2           -28.3126405720       15.1172575841       -9.1741563352  W2        4259            0.0000000000
     12776      4259  TIP3      H1            -27.6930005720       14.4407275841       -9.4472363352  W2        4259            0.0000000000
     12777      4259  TIP3      H2            -28.5209005720       14.8993375841       -8.2656663352  W2        4259            0.0000000000
     12778      4260  TIP3      OH2           -30.7407705720        9.5061875841       -7.2816063352  W2        4260            0.0000000000
     12779      4260  TIP3      H1            -30.4369805720        8.8203275841       -7.8761963352  W2        4260            0.0000000000
     12780      4260  TIP3      H2            -30.0193705720        9.6250575841       -6.6638063352  W2        4260            0.0000000000
     12781      4261  TIP3      OH2           -22.0777905720        1.1077175841       -6.4209863352  W2        4261            0.0000000000
     12782      4261  TIP3      H1            -22.0285705720        1.7178375841       -5.6850763352  W2        4261            0.0000000000
     12783      4261  TIP3      H2            -21.6522805720        1.5688075841       -7.1438763352  W2        4261            0.0000000000
     12784      4262  TIP3      OH2           -27.6000705720        3.9004275841       -6.9541263352  W2        4262            0.0000000000
     12785      4262  TIP3      H1            -27.4574805720        2.9541275841       -6.9339663352  W2        4262            0.0000000000
     12786      4262  TIP3      H2            -27.7061705720        4.1074075841       -7.8826363352  W2        4262            0.0000000000
     12787      4263  TIP3      OH2           -34.4452405720        2.0020675841       -9.6816463352  W2        4263            0.0000000000
     12788      4263  TIP3      H1            -34.4021305720        2.8619175841      -10.1000163352  W2        4263            0.0000000000
     12789      4263  TIP3      H2            -34.9028305720        1.4495375841      -10.3153263352  W2        4263            0.0000000000
     12790      4264  TIP3      OH2           -26.7229705720        2.1326275841      -11.2808163352  W2        4264            0.0000000000
     12791      4264  TIP3      H1            -26.0765405720        1.8039475841      -10.6560563352  W2        4264            0.0000000000
     12792      4264  TIP3      H2            -26.2130305720        2.6505275841      -11.9036763352  W2        4264            0.0000000000
     12793      4265  TIP3      OH2           -37.8250905720        4.3986475841       -8.9195063352  W2        4265            0.0000000000
     12794      4265  TIP3      H1            -37.1714305720        3.8488175841       -8.4874963352  W2        4265            0.0000000000
     12795      4265  TIP3      H2            -37.8011605720        4.1245475841       -9.8363063352  W2        4265            0.0000000000
     12796      4266  TIP3      OH2           -32.6686405720        5.9487775841       -9.7043563352  W2        4266            0.0000000000
     12797      4266  TIP3      H1            -32.0525405720        5.4223175841       -9.1949563352  W2        4266            0.0000000000
     12798      4266  TIP3      H2            -33.2547605720        5.3086475841      -10.1079963352  W2        4266            0.0000000000
     12799      4267  TIP3      OH2           -21.6863305720        2.5856375841       -4.1850063352  W2        4267            0.0000000000
     12800      4267  TIP3      H1            -22.3748705720        3.2437075841       -4.2803463352  W2        4267            0.0000000000
     12801      4267  TIP3      H2            -21.6708705720        2.3884275841       -3.2484663352  W2        4267            0.0000000000
     12802      4268  TIP3      OH2           -35.6350505720        0.9199075841       -5.6075663352  W2        4268            0.0000000000
     12803      4268  TIP3      H1            -35.8538805720        1.4499675841       -6.3739663352  W2        4268            0.0000000000
     12804      4268  TIP3      H2            -36.3029605720        1.1464575841       -4.9604263352  W2        4268            0.0000000000
     12805      4269  TIP3      OH2           -28.2660705720       10.4200175841      -12.0636563352  W2        4269            0.0000000000
     12806      4269  TIP3      H1            -28.5615605720       10.0972475841      -12.9149663352  W2        4269            0.0000000000
     12807      4269  TIP3      H2            -28.5902905720       11.3196875841      -12.0223963352  W2        4269            0.0000000000
     12808      4270  TIP3      OH2           -33.0659105720        8.5954775841       -5.3201963352  W2        4270            0.0000000000
     12809      4270  TIP3      H1            -33.8060005720        9.1936275841       -5.2166763352  W2        4270            0.0000000000
     12810      4270  TIP3      H2            -32.3519605720        9.1494375841       -5.6358363352  W2        4270            0.0000000000
     12811      4271  TIP3      OH2           -24.9591305720        1.4235575841       -9.3002263352  W2        4271            0.0000000000
     12812      4271  TIP3      H1            -25.1743305720        0.6578975841       -8.7676263352  W2        4271            0.0000000000
     12813      4271  TIP3      H2            -24.3033905720        1.8960175841       -8.7873763352  W2        4271            0.0000000000
     12814      4272  TIP3      OH2           -36.0413205720        2.8120875841       -7.6553463352  W2        4272            0.0000000000
     12815      4272  TIP3      H1            -35.4276905720        3.4448475841       -7.2821063352  W2        4272            0.0000000000
     12816      4272  TIP3      H2            -35.5292505720        2.3395875841       -8.3116563352  W2        4272            0.0000000000
     12817      4273  TIP3      OH2           -34.6584805720       10.5597775841       -4.5330463352  W2        4273            0.0000000000
     12818      4273  TIP3      H1            -34.6637205720       11.4391275841       -4.9111163352  W2        4273            0.0000000000
     12819      4273  TIP3      H2            -35.5120705720       10.4761875841       -4.1080563352  W2        4273            0.0000000000
     12820      4274  TIP3      OH2           -38.5373905720       10.2305675841      -13.7511163352  W2        4274            0.0000000000
     12821      4274  TIP3      H1            -38.8093005720       10.4596675841      -14.6398263352  W2        4274            0.0000000000
     12822      4274  TIP3      H2            -38.4918205720       11.0684475841      -13.2905863352  W2        4274            0.0000000000
     12823      4275  TIP3      OH2           -24.9124205720       11.8521575841       -7.0382663352  W2        4275            0.0000000000
     12824      4275  TIP3      H1            -25.8540505720       11.9105475841       -6.8765763352  W2        4275            0.0000000000
     12825      4275  TIP3      H2            -24.6358105720       12.7582075841       -7.1752963352  W2        4275            0.0000000000
     12826      4276  TIP3      OH2           -24.6117205720        0.1386875841       -5.6208763352  W2        4276            0.0000000000
     12827      4276  TIP3      H1            -25.3478005720        0.7493975841       -5.6587463352  W2        4276            0.0000000000
     12828      4276  TIP3      H2            -23.9283205720        0.5535875841       -6.1472363352  W2        4276            0.0000000000
     12829      4277  TIP3      OH2           -31.6085805720       -1.7745824159       -8.1550763352  W2        4277            0.0000000000
     12830      4277  TIP3      H1            -31.7261605720       -2.7229824159       -8.2092463352  W2        4277            0.0000000000
     12831      4277  TIP3      H2            -32.4635705720       -1.4419724159       -7.8819663352  W2        4277            0.0000000000
     12832      4278  TIP3      OH2           -26.6603005720       13.6335075841      -10.4131063352  W2        4278            0.0000000000
     12833      4278  TIP3      H1            -26.2350705720       12.9262975841      -10.8981463352  W2        4278            0.0000000000
     12834      4278  TIP3      H2            -26.3433005720       14.4347775841      -10.8298863352  W2        4278            0.0000000000
     12835      4279  TIP3      OH2           -25.5006505720       11.5343575841      -11.9044463352  W2        4279            0.0000000000
     12836      4279  TIP3      H1            -25.7581705720       10.8443675841      -12.5158563352  W2        4279            0.0000000000
     12837      4279  TIP3      H2            -25.4295705720       11.0914775841      -11.0588563352  W2        4279            0.0000000000
     12838      4280  TIP3      OH2           -23.8146305720       10.1010275841       -3.4270963352  W2        4280            0.0000000000
     12839      4280  TIP3      H1            -23.6750005720        9.5092775841       -4.1663963352  W2        4280            0.0000000000
     12840      4280  TIP3      H2            -23.6473505720       10.9736175841       -3.7832163352  W2        4280            0.0000000000
     12841      4281  TIP3      OH2           -29.3420905720        7.0629775841      -13.6544963352  W2        4281            0.0000000000
     12842      4281  TIP3      H1            -30.0535405720        7.5979475841      -14.0064463352  W2        4281            0.0000000000
     12843      4281  TIP3      H2            -28.6511305720        7.1181875841      -14.3146063352  W2        4281            0.0000000000
     12844      4282  TIP3      OH2           -29.2881705720        5.5204075841      -16.6159963352  W2        4282            0.0000000000
     12845      4282  TIP3      H1            -28.5871805720        5.5430975841      -15.9645963352  W2        4282            0.0000000000
     12846      4282  TIP3      H2            -28.9858805720        4.8923775841      -17.2720663352  W2        4282            0.0000000000
     12847      4283  TIP3      OH2           -21.9727005720        6.4408275841       -5.3610563352  W2        4283            0.0000000000
     12848      4283  TIP3      H1            -22.6252905720        7.1353875841       -5.2719663352  W2        4283            0.0000000000
     12849      4283  TIP3      H2            -21.5076705720        6.6509175841       -6.1708963352  W2        4283            0.0000000000
     12850      4284  TIP3      OH2           -25.9363205720        7.2723075841      -12.7029063352  W2        4284            0.0000000000
     12851      4284  TIP3      H1            -26.6682205720        7.5006775841      -12.1298463352  W2        4284            0.0000000000
     12852      4284  TIP3      H2            -25.4891005720        6.5585775841      -12.2481563352  W2        4284            0.0000000000
     12853      4285  TIP3      OH2           -26.0389705720        5.4465675841       -3.6352063352  W2        4285            0.0000000000
     12854      4285  TIP3      H1            -25.9590605720        6.2100075841       -3.0633563352  W2        4285            0.0000000000
     12855      4285  TIP3      H2            -26.6402005720        5.7258075841       -4.3256963352  W2        4285            0.0000000000
     12856      4286  TIP3      OH2           -34.2909505720        7.9029275841      -10.8204063352  W2        4286            0.0000000000
     12857      4286  TIP3      H1            -34.6214305720        7.5322675841      -11.6387063352  W2        4286            0.0000000000
     12858      4286  TIP3      H2            -33.7025405720        7.2323275841      -10.4735763352  W2        4286            0.0000000000
     12859      4287  TIP3      OH2           -32.9242005720       11.3309875841       -8.1391863352  W2        4287            0.0000000000
     12860      4287  TIP3      H1            -33.0190705720       10.7522975841       -8.8957263352  W2        4287            0.0000000000
     12861      4287  TIP3      H2            -32.1948405720       10.9595575841       -7.6429063352  W2        4287            0.0000000000
     12862      4288  TIP3      OH2           -33.9244005720        6.6714875841       -7.1869063352  W2        4288            0.0000000000
     12863      4288  TIP3      H1            -33.3591505720        6.7929075841       -7.9497863352  W2        4288            0.0000000000
     12864      4288  TIP3      H2            -33.6055105720        7.3089875841       -6.5480563352  W2        4288            0.0000000000
     12865      4289  TIP3      OH2           -27.6151805720       12.1746775841       -6.4528563352  W2        4289            0.0000000000
     12866      4289  TIP3      H1            -27.8555205720       12.8369875841       -5.8049363352  W2        4289            0.0000000000
     12867      4289  TIP3      H2            -27.8133605720       11.3401975841       -6.0278963352  W2        4289            0.0000000000
     12868      4290  TIP3      OH2           -33.0443305720       11.0707575841       -2.4697163352  W2        4290            0.0000000000
     12869      4290  TIP3      H1            -33.3555805720       11.8530775841       -2.0143963352  W2        4290            0.0000000000
     12870      4290  TIP3      H2            -33.6943105720       10.9176675841       -3.1555163352  W2        4290            0.0000000000
     12871      4291  TIP3      OH2           -27.0653705720        6.4345975841      -15.0177863352  W2        4291            0.0000000000
     12872      4291  TIP3      H1            -26.4858205720        6.5846275841      -14.2708963352  W2        4291            0.0000000000
     12873      4291  TIP3      H2            -26.6513705720        6.9053375841      -15.7411463352  W2        4291            0.0000000000
     12874      4292  TIP3      OH2           -36.1243405720        7.2688675841       -3.2411463352  W2        4292            0.0000000000
     12875      4292  TIP3      H1            -36.0540205720        7.9195475841       -2.5426463352  W2        4292            0.0000000000
     12876      4292  TIP3      H2            -37.0151205720        7.3716175841       -3.5760563352  W2        4292            0.0000000000
     12877      4293  TIP3      OH2           -29.3388805720       13.1714475841      -11.5824763352  W2        4293            0.0000000000
     12878      4293  TIP3      H1            -28.8651205720       13.4670775841      -10.8050563352  W2        4293            0.0000000000
     12879      4293  TIP3      H2            -29.9019505720       13.9096075841      -11.8155163352  W2        4293            0.0000000000
     12880      4294  TIP3      OH2           -34.8047405720       13.1422575841       -1.7063363352  W2        4294            0.0000000000
     12881      4294  TIP3      H1            -34.7972105720       13.0062275841       -2.6537863352  W2        4294            0.0000000000
     12882      4294  TIP3      H2            -35.7207005720       13.0250675841       -1.4543363352  W2        4294            0.0000000000
     12883      4295  TIP3      OH2           -23.3665305720       -1.8153624159      -15.2048163352  W2        4295            0.0000000000
     12884      4295  TIP3      H1            -24.2664605720       -1.6764624159      -14.9097563352  W2        4295            0.0000000000
     12885      4295  TIP3      H2            -23.1146905720       -0.9839024159      -15.6066463352  W2        4295            0.0000000000
     12886      4296  TIP3      OH2           -35.3006805720        6.9723575841      -13.2311263352  W2        4296            0.0000000000
     12887      4296  TIP3      H1            -35.5925505720        7.7405275841      -13.7219963352  W2        4296            0.0000000000
     12888      4296  TIP3      H2            -35.9751605720        6.3129775841      -13.3939863352  W2        4296            0.0000000000
     12889      4297  TIP3      OH2           -22.1773905720       12.5508775841      -16.8284263352  W2        4297            0.0000000000
     12890      4297  TIP3      H1            -22.1040405720       13.4898975841      -16.6578963352  W2        4297            0.0000000000
     12891      4297  TIP3      H2            -21.2718805720       12.2457375841      -16.8846963352  W2        4297            0.0000000000
     12892      4298  TIP3      OH2           -39.2076705720        9.3352775841       -4.4161463352  W2        4298            0.0000000000
     12893      4298  TIP3      H1            -39.7088305720        9.3072175841       -5.2311763352  W2        4298            0.0000000000
     12894      4298  TIP3      H2            -39.2023005720        8.4295975841       -4.1064163352  W2        4298            0.0000000000
     12895      4299  TIP3      OH2           -39.4574005720       12.1156575841       -7.5321263352  W2        4299            0.0000000000
     12896      4299  TIP3      H1            -38.5113405720       11.9713575841       -7.5511763352  W2        4299            0.0000000000
     12897      4299  TIP3      H2            -39.5697705720       12.8999375841       -6.9950063352  W2        4299            0.0000000000
     12898      4300  TIP3      OH2           -21.2595505720       12.7816275841       -1.8497563352  W2        4300            0.0000000000
     12899      4300  TIP3      H1            -21.3088705720       11.8264375841       -1.8869963352  W2        4300            0.0000000000
     12900      4300  TIP3      H2            -22.0863205720       13.0491575841       -1.4483763352  W2        4300            0.0000000000
     12901      4301  TIP3      OH2           -30.2811505720       12.3555475841       -2.9736163352  W2        4301            0.0000000000
     12902      4301  TIP3      H1            -30.1936905720       13.1820075841       -2.4987063352  W2        4301            0.0000000000
     12903      4301  TIP3      H2            -31.1446405720       12.0259275841       -2.7246863352  W2        4301            0.0000000000
     12904      4302  TIP3      OH2           -29.8665705720       16.1279175841      -13.1675563352  W2        4302            0.0000000000
     12905      4302  TIP3      H1            -29.9419705720       16.0066375841      -14.1140363352  W2        4302            0.0000000000
     12906      4302  TIP3      H2            -29.8337005720       17.0771875841      -13.0490963352  W2        4302            0.0000000000
     12907      4303  TIP3      OH2           -36.2131905720       14.9166175841      -11.3866563352  W2        4303            0.0000000000
     12908      4303  TIP3      H1            -36.0611505720       14.5686575841      -10.5080063352  W2        4303            0.0000000000
     12909      4303  TIP3      H2            -37.0641505720       14.5603475841      -11.6419363352  W2        4303            0.0000000000
     12910      4304  TIP3      OH2           -26.7649705720       15.2819375841      -16.1653163352  W2        4304            0.0000000000
     12911      4304  TIP3      H1            -26.3901305720       14.5375475841      -16.6360563352  W2        4304            0.0000000000
     12912      4304  TIP3      H2            -26.7606005720       15.0119975841      -15.2469863352  W2        4304            0.0000000000
     12913      4305  TIP3      OH2           -27.0961605720       15.2076475841      -13.4160963352  W2        4305            0.0000000000
     12914      4305  TIP3      H1            -28.0311805720       15.3078375841      -13.2373963352  W2        4305            0.0000000000
     12915      4305  TIP3      H2            -26.8159705720       14.4982475841      -12.8377763352  W2        4305            0.0000000000
     12916      4306  TIP3      OH2           -24.1075705720        4.2748775841       -1.3695363352  W2        4306            0.0000000000
     12917      4306  TIP3      H1            -24.5148905720        4.7554375841       -2.0902063352  W2        4306            0.0000000000
     12918      4306  TIP3      H2            -24.0670005720        3.3694775841       -1.6774563352  W2        4306            0.0000000000
     12919      4307  TIP3      OH2           -36.9586205720       10.6588175841       -3.3728663352  W2        4307            0.0000000000
     12920      4307  TIP3      H1            -36.7424905720       10.2973775841       -2.5132863352  W2        4307            0.0000000000
     12921      4307  TIP3      H2            -37.8141505720       10.2841975841       -3.5825163352  W2        4307            0.0000000000
     12922      4308  TIP3      OH2           -34.3398205720       -0.8711324159       -7.3774463352  W2        4308            0.0000000000
     12923      4308  TIP3      H1            -35.2014505720       -0.9583124159       -7.7851563352  W2        4308            0.0000000000
     12924      4308  TIP3      H2            -34.3622505720       -0.0151224159       -6.9496863352  W2        4308            0.0000000000
     12925      4309  TIP3      OH2           -29.6770405720       -1.1490924159       -4.0027463352  W2        4309            0.0000000000
     12926      4309  TIP3      H1            -29.2567305720       -1.5643824159       -3.2496863352  W2        4309            0.0000000000
     12927      4309  TIP3      H2            -30.6100805720       -1.3277624159       -3.8855463352  W2        4309            0.0000000000
     12928      4310  TIP3      OH2           -26.3505505720        2.6064275841       -3.1492963352  W2        4310            0.0000000000
     12929      4310  TIP3      H1            -26.8646005720        2.4806475841       -2.3516963352  W2        4310            0.0000000000
     12930      4310  TIP3      H2            -26.5060805720        3.5187375841       -3.3936763352  W2        4310            0.0000000000
     12931      4311  TIP3      OH2           -25.5880605720        7.4674275841      -17.3879963352  W2        4311            0.0000000000
     12932      4311  TIP3      H1            -25.5459805720        7.2448175841      -18.3179963352  W2        4311            0.0000000000
     12933      4311  TIP3      H2            -24.7388505720        7.8661375841      -17.1980063352  W2        4311            0.0000000000
     12934      4312  TIP3      OH2           -30.0153105720        1.3432475841      -16.7176663352  W2        4312            0.0000000000
     12935      4312  TIP3      H1            -30.2688305720        1.3624075841      -15.7948563352  W2        4312            0.0000000000
     12936      4312  TIP3      H2            -30.2721005720        0.4717875841      -17.0190463352  W2        4312            0.0000000000
     12937      4313  TIP3      OH2           -34.2488105720        4.0943175841       -6.2824263352  W2        4313            0.0000000000
     12938      4313  TIP3      H1            -34.8906005720        4.0540475841       -5.5734163352  W2        4313            0.0000000000
     12939      4313  TIP3      H2            -34.2116105720        5.0207875841       -6.5201263352  W2        4313            0.0000000000
     12940      4314  TIP3      OH2           -34.2519005720        4.3153275841      -11.3704263352  W2        4314            0.0000000000
     12941      4314  TIP3      H1            -35.1446105720        3.9749375841      -11.4290463352  W2        4314            0.0000000000
     12942      4314  TIP3      H2            -33.8012405720        3.9384175841      -12.1261063352  W2        4314            0.0000000000
     12943      4315  TIP3      OH2           -28.7163505720        4.7313575841      -12.5533463352  W2        4315            0.0000000000
     12944      4315  TIP3      H1            -29.1253205720        5.5462175841      -12.8448663352  W2        4315            0.0000000000
     12945      4315  TIP3      H2            -27.9957305720        4.5913675841      -13.1676363352  W2        4315            0.0000000000
     12946      4316  TIP3      OH2           -29.6141905720        4.9069975841       -1.0652763352  W2        4316            0.0000000000
     12947      4316  TIP3      H1            -30.1768105720        4.2021575841       -0.7444963352  W2        4316            0.0000000000
     12948      4316  TIP3      H2            -28.7878505720        4.7861875841       -0.5975163352  W2        4316            0.0000000000
     12949      4317  TIP3      OH2           -27.7115805720        4.1773975841       -9.7393763352  W2        4317            0.0000000000
     12950      4317  TIP3      H1            -27.9071305720        4.7830775841      -10.4543163352  W2        4317            0.0000000000
     12951      4317  TIP3      H2            -27.5303205720        3.3439175841      -10.1737463352  W2        4317            0.0000000000
     12952      4318  TIP3      OH2           -36.4987605720        4.4146675841       -4.4152263352  W2        4318            0.0000000000
     12953      4318  TIP3      H1            -36.5368205720        4.8148275841       -3.5465163352  W2        4318            0.0000000000
     12954      4318  TIP3      H2            -36.9896505720        3.5979075841       -4.3249363352  W2        4318            0.0000000000
     12955      4319  TIP3      OH2           -33.1330205720        1.7888975841      -17.6166263352  W2        4319            0.0000000000
     12956      4319  TIP3      H1            -33.5639505720        1.3439075841      -16.8868863352  W2        4319            0.0000000000
     12957      4319  TIP3      H2            -33.8511505720        2.1605275841      -18.1288763352  W2        4319            0.0000000000
     12958      4320  TIP3      OH2           -39.8906805720        1.5308475841      -10.5647563352  W2        4320            0.0000000000
     12959      4320  TIP3      H1            -39.2599105720        1.5020575841       -9.8453663352  W2        4320            0.0000000000
     12960      4320  TIP3      H2            -39.4412505720        1.1057175841      -11.2951663352  W2        4320            0.0000000000
     12961      4321  TIP3      OH2           -38.6164705720        2.2770475841      -15.1407163352  W2        4321            0.0000000000
     12962      4321  TIP3      H1            -38.1423005720        2.8680375841      -15.7256263352  W2        4321            0.0000000000
     12963      4321  TIP3      H2            -39.3338305720        2.8073375841      -14.7937063352  W2        4321            0.0000000000
     12964      4322  TIP3      OH2           -28.4476605720        5.8155275841       -5.0681363352  W2        4322            0.0000000000
     12965      4322  TIP3      H1            -28.1241805720        5.1844975841       -5.7110863352  W2        4322            0.0000000000
     12966      4322  TIP3      H2            -28.8877305720        5.2807475841       -4.4073963352  W2        4322            0.0000000000
     12967      4323  TIP3      OH2           -31.6703705720        1.7430775841      -10.2840163352  W2        4323            0.0000000000
     12968      4323  TIP3      H1            -32.5812605720        1.7997575841       -9.9954163352  W2        4323            0.0000000000
     12969      4323  TIP3      H2            -31.1650805720        1.6826275841       -9.4732963352  W2        4323            0.0000000000
     12970      4324  TIP3      OH2           -36.8420305720        3.3717075841      -11.4572563352  W2        4324            0.0000000000
     12971      4324  TIP3      H1            -37.7312305720        3.4712575841      -11.7972963352  W2        4324            0.0000000000
     12972      4324  TIP3      H2            -36.5455405720        2.5300075841      -11.8034663352  W2        4324            0.0000000000
     12973      4325  TIP3      OH2           -33.1888505720        3.3719675841      -13.8007963352  W2        4325            0.0000000000
     12974      4325  TIP3      H1            -32.2573005720        3.5009675841      -13.6224863352  W2        4325            0.0000000000
     12975      4325  TIP3      H2            -33.4038205720        4.0413975841      -14.4503263352  W2        4325            0.0000000000
     12976      4326  TIP3      OH2           -27.2651805720        0.9777075841       -7.0198363352  W2        4326            0.0000000000
     12977      4326  TIP3      H1            -27.9420205720        1.1090175841       -6.3558663352  W2        4326            0.0000000000
     12978      4326  TIP3      H2            -27.7506905720        0.8226575841       -7.8300663352  W2        4326            0.0000000000
     12979      4327  TIP3      OH2           -34.5148305720        4.5661875841      -16.2341863352  W2        4327            0.0000000000
     12980      4327  TIP3      H1            -35.0573205720        4.1865675841      -16.9254263352  W2        4327            0.0000000000
     12981      4327  TIP3      H2            -33.6813405720        4.7606575841      -16.6627763352  W2        4327            0.0000000000
     12982      4328  TIP3      OH2           -23.9776705720       16.6492475841       -0.7430763352  W2        4328            0.0000000000
     12983      4328  TIP3      H1            -23.7778005720       17.0734375841       -1.5775463352  W2        4328            0.0000000000
     12984      4328  TIP3      H2            -23.3223005720       16.9930675841       -0.1360363352  W2        4328            0.0000000000
     12985      4329  TIP3      OH2           -36.3796905720        9.1233775841       -1.1350263352  W2        4329            0.0000000000
     12986      4329  TIP3      H1            -35.6474505720        9.3779675841       -0.5735763352  W2        4329            0.0000000000
     12987      4329  TIP3      H2            -37.1598205720        9.3279175841       -0.6194863352  W2        4329            0.0000000000
     12988      4330  TIP3      OH2           -30.3504005720        4.5303775841       -8.3970563352  W2        4330            0.0000000000
     12989      4330  TIP3      H1            -29.7860605720        3.9840375841       -8.9440963352  W2        4330            0.0000000000
     12990      4330  TIP3      H2            -30.4980605720        4.0085675841       -7.6082963352  W2        4330            0.0000000000
     12991      4331  TIP3      OH2           -35.3484305720        0.6669875841      -11.9785763352  W2        4331            0.0000000000
     12992      4331  TIP3      H1            -35.6654805720       -0.2354824159      -12.0140363352  W2        4331            0.0000000000
     12993      4331  TIP3      H2            -34.5670205720        0.6687275841      -12.5314163352  W2        4331            0.0000000000
     12994      4332  TIP3      OH2           -31.7238105720        2.9189875841       -5.9830163352  W2        4332            0.0000000000
     12995      4332  TIP3      H1            -32.5592805720        3.3729375841       -5.8727763352  W2        4332            0.0000000000
     12996      4332  TIP3      H2            -31.1997505720        3.1948375841       -5.2310263352  W2        4332            0.0000000000
     12997      4333  TIP3      OH2           -31.1795505720        9.1317575841      -14.2983763352  W2        4333            0.0000000000
     12998      4333  TIP3      H1            -31.9244505720        8.6242875841      -14.6205863352  W2        4333            0.0000000000
     12999      4333  TIP3      H2            -31.3138305720        9.1805575841      -13.3518963352  W2        4333            0.0000000000
     13000      4334  TIP3      OH2           -24.0296605720        8.2645775841       -5.5116163352  W2        4334            0.0000000000
     13001      4334  TIP3      H1            -23.3877805720        8.7212075841       -6.0553963352  W2        4334            0.0000000000
     13002      4334  TIP3      H2            -24.8599705720        8.3778175841       -5.9742063352  W2        4334            0.0000000000
     13003      4335  TIP3      OH2           -27.2818705720        1.9457475841      -16.0991163352  W2        4335            0.0000000000
     13004      4335  TIP3      H1            -28.2204505720        2.0573075841      -16.2502363352  W2        4335            0.0000000000
     13005      4335  TIP3      H2            -26.9846605720        2.8024375841      -15.7925463352  W2        4335            0.0000000000
     13006      4336  TIP3      OH2           -29.6603405720        9.3160875841       -3.0614663352  W2        4336            0.0000000000
     13007      4336  TIP3      H1            -30.0057305720        8.9343275841       -2.2545063352  W2        4336            0.0000000000
     13008      4336  TIP3      H2            -29.8603305720       10.2494475841       -2.9901763352  W2        4336            0.0000000000
     13009      4337  TIP3      OH2           -26.5635205720        3.8130175841      -14.4383763352  W2        4337            0.0000000000
     13010      4337  TIP3      H1            -25.6716205720        3.6755175841      -14.1192563352  W2        4337            0.0000000000
     13011      4337  TIP3      H2            -26.5071605720        4.6036275841      -14.9750263352  W2        4337            0.0000000000
     13012      4338  TIP3      OH2           -36.0547205720        8.4267575841       -8.5285863352  W2        4338            0.0000000000
     13013      4338  TIP3      H1            -35.3100005720        8.4243275841       -9.1299363352  W2        4338            0.0000000000
     13014      4338  TIP3      H2            -35.9770605720        7.6031375841       -8.0470763352  W2        4338            0.0000000000
     13015      4339  TIP3      OH2           -29.0541405720       10.5901875841      -15.2729163352  W2        4339            0.0000000000
     13016      4339  TIP3      H1            -29.3493005720       11.4169775841      -14.8914363352  W2        4339            0.0000000000
     13017      4339  TIP3      H2            -29.7571405720        9.9708775841      -15.0767763352  W2        4339            0.0000000000
     13018      4340  TIP3      OH2           -39.0467505720        6.8874475841       -3.2137363352  W2        4340            0.0000000000
     13019      4340  TIP3      H1            -38.8238905720        6.4694075841       -2.3819863352  W2        4340            0.0000000000
     13020      4340  TIP3      H2            -39.6487405720        6.2749475841       -3.6364563352  W2        4340            0.0000000000
     13021      4341  TIP3      OH2           -32.0302605720        6.4044375841       -1.0007663352  W2        4341            0.0000000000
     13022      4341  TIP3      H1            -32.3261805720        6.2387375841       -1.8958563352  W2        4341            0.0000000000
     13023      4341  TIP3      H2            -31.0987405720        6.1844675841       -1.0113763352  W2        4341            0.0000000000
     13024      4342  TIP3      OH2           -27.4099805720       11.7776375841       -3.1109663352  W2        4342            0.0000000000
     13025      4342  TIP3      H1            -28.3105505720       11.9608975841       -3.3785763352  W2        4342            0.0000000000
     13026      4342  TIP3      H2            -27.3758705720       12.0365675841       -2.1900863352  W2        4342            0.0000000000
     13027      4343  TIP3      OH2           -21.6786505720        4.0224275841      -14.7437063352  W2        4343            0.0000000000
     13028      4343  TIP3      H1            -22.2330205720        3.6262275841      -15.4159563352  W2        4343            0.0000000000
     13029      4343  TIP3      H2            -21.5782905720        4.9329475841      -15.0213763352  W2        4343            0.0000000000
     13030      4344  TIP3      OH2           -21.7154505720        9.8225975841       -1.9065563352  W2        4344            0.0000000000
     13031      4344  TIP3      H1            -22.5666005720       10.0609775841       -2.2739163352  W2        4344            0.0000000000
     13032      4344  TIP3      H2            -21.1251105720        9.8059175841       -2.6598463352  W2        4344            0.0000000000
     13033      4345  TIP3      OH2           -23.3834805720       12.8084675841      -14.2784963352  W2        4345            0.0000000000
     13034      4345  TIP3      H1            -23.7563705720       11.9828475841      -13.9694363352  W2        4345            0.0000000000
     13035      4345  TIP3      H2            -23.1061305720       12.6254075841      -15.1761563352  W2        4345            0.0000000000
     13036      4346  TIP3      OH2           -26.2230905720        7.6164175841       -7.2573063352  W2        4346            0.0000000000
     13037      4346  TIP3      H1            -27.1514005720        7.3846075841       -7.2843763352  W2        4346            0.0000000000
     13038      4346  TIP3      H2            -25.7719805720        6.8393975841       -7.5874263352  W2        4346            0.0000000000
     13039      4347  TIP3      OH2           -33.6797805720       11.9445775841      -11.1244363352  W2        4347            0.0000000000
     13040      4347  TIP3      H1            -33.1525605720       12.7180175841      -11.3245563352  W2        4347            0.0000000000
     13041      4347  TIP3      H2            -34.5599305720       12.1694975841      -11.4260363352  W2        4347            0.0000000000
     13042      4348  TIP3      OH2           -37.9250105720        6.8069875841      -16.5371963352  W2        4348            0.0000000000
     13043      4348  TIP3      H1            -37.3090205720        7.4337075841      -16.1577163352  W2        4348            0.0000000000
     13044      4348  TIP3      H2            -38.7867505720        7.1229675841      -16.2655463352  W2        4348            0.0000000000
     13045      4349  TIP3      OH2           -32.2525505720        9.6075675841      -11.5480063352  W2        4349            0.0000000000
     13046      4349  TIP3      H1            -32.4935505720       10.5330075841      -11.5064763352  W2        4349            0.0000000000
     13047      4349  TIP3      H2            -32.9931905720        9.1486975841      -11.1516163352  W2        4349            0.0000000000
     13048      4350  TIP3      OH2           -31.7378905720       13.7569275841       -5.2328963352  W2        4350            0.0000000000
     13049      4350  TIP3      H1            -31.3754205720       14.6114875841       -5.4664563352  W2        4350            0.0000000000
     13050      4350  TIP3      H2            -31.2063705720       13.4650875841       -4.4922663352  W2        4350            0.0000000000
     13051      4351  TIP3      OH2           -33.5694705720       14.6293275841      -12.0027863352  W2        4351            0.0000000000
     13052      4351  TIP3      H1            -34.5194205720       14.7350675841      -11.9514563352  W2        4351            0.0000000000
     13053      4351  TIP3      H2            -33.2176605720       15.4500675841      -11.6580363352  W2        4351            0.0000000000
     13054      4352  TIP3      OH2           -28.1938105720        9.8559975841       -5.5323363352  W2        4352            0.0000000000
     13055      4352  TIP3      H1            -28.6196805720        9.6281675841       -4.7059363352  W2        4352            0.0000000000
     13056      4352  TIP3      H2            -27.6132305720        9.1171775841       -5.7148063352  W2        4352            0.0000000000
     13057      4353  TIP3      OH2           -25.9909205720       10.7850475841      -16.4584363352  W2        4353            0.0000000000
     13058      4353  TIP3      H1            -25.6376105720       10.4050275841      -15.6540863352  W2        4353            0.0000000000
     13059      4353  TIP3      H2            -26.9395705720       10.6915275841      -16.3715063352  W2        4353            0.0000000000
     13060      4354  TIP3      OH2           -25.5353905720       14.4079475841       -3.0628563352  W2        4354            0.0000000000
     13061      4354  TIP3      H1            -26.1370705720       13.8522375841       -3.5582263352  W2        4354            0.0000000000
     13062      4354  TIP3      H2            -25.2540205720       15.0749275841       -3.6891163352  W2        4354            0.0000000000
     13063      4355  TIP3      OH2           -21.4874805720       15.2642975841      -16.2574163352  W2        4355            0.0000000000
     13064      4355  TIP3      H1            -20.7436905720       15.8503475841      -16.3972563352  W2        4355            0.0000000000
     13065      4355  TIP3      H2            -22.1816705720       15.8328775841      -15.9241763352  W2        4355            0.0000000000
     13066      4356  TIP3      OH2           -37.4128005720        1.6407175841       -3.6555963352  W2        4356            0.0000000000
     13067      4356  TIP3      H1            -38.3055705720        1.9792575841       -3.7231963352  W2        4356            0.0000000000
     13068      4356  TIP3      H2            -37.5115205720        0.7853275841       -3.2375163352  W2        4356            0.0000000000
     13069      4357  TIP3      OH2           -25.1249905720        9.4572475841      -14.2316463352  W2        4357            0.0000000000
     13070      4357  TIP3      H1            -25.4022305720        8.7291775841      -13.6755363352  W2        4357            0.0000000000
     13071      4357  TIP3      H2            -24.1976905720        9.5764475841      -14.0263863352  W2        4357            0.0000000000
     13072      4358  TIP3      OH2           -37.7616005720       13.4451575841       -5.2206563352  W2        4358            0.0000000000
     13073      4358  TIP3      H1            -37.5445705720       12.5133975841       -5.2516863352  W2        4358            0.0000000000
     13074      4358  TIP3      H2            -37.5152505720       13.7196575841       -4.3373763352  W2        4358            0.0000000000
     13075      4359  TIP3      OH2           -31.9001405720       11.8966575841      -18.0114363352  W2        4359            0.0000000000
     13076      4359  TIP3      H1            -31.6611605720       11.1484675841      -18.5585463352  W2        4359            0.0000000000
     13077      4359  TIP3      H2            -32.1690105720       11.5088275841      -17.1786563352  W2        4359            0.0000000000
     13078      4360  TIP3      OH2           -32.9630805720       11.4670375841      -15.5551763352  W2        4360            0.0000000000
     13079      4360  TIP3      H1            -32.8162805720       10.9470175841      -14.7650863352  W2        4360            0.0000000000
     13080      4360  TIP3      H2            -32.9659105720       12.3737975841      -15.2485863352  W2        4360            0.0000000000
     13081      4361  TIP3      OH2           -36.5099705720        8.7193675841      -15.0446363352  W2        4361            0.0000000000
     13082      4361  TIP3      H1            -37.1960405720        9.0716175841      -14.4776663352  W2        4361            0.0000000000
     13083      4361  TIP3      H2            -35.9871805720        9.4823275841      -15.2912063352  W2        4361            0.0000000000
     13084      4362  TIP3      OH2           -28.6784605720        1.3817475841       -4.7657363352  W2        4362            0.0000000000
     13085      4362  TIP3      H1            -27.9796705720        1.4556175841       -4.1157663352  W2        4362            0.0000000000
     13086      4362  TIP3      H2            -29.0593205720        0.5172475841       -4.6114463352  W2        4362            0.0000000000
     13087      4363  TIP3      OH2           -27.8939705720        1.0339175841      -13.6685063352  W2        4363            0.0000000000
     13088      4363  TIP3      H1            -27.6741405720        1.5054575841      -14.4719663352  W2        4363            0.0000000000
     13089      4363  TIP3      H2            -27.3355705720        1.4281775841      -12.9984463352  W2        4363            0.0000000000
     13090      4364  TIP3      OH2           -30.2253605720       13.1643975841      -14.8057563352  W2        4364            0.0000000000
     13091      4364  TIP3      H1            -31.0417505720       13.6613675841      -14.7533263352  W2        4364            0.0000000000
     13092      4364  TIP3      H2            -29.6957305720       13.6397475841      -15.4458763352  W2        4364            0.0000000000
     13093      4365  TIP3      OH2           -30.6939805720        2.7617975841      -12.8336663352  W2        4365            0.0000000000
     13094      4365  TIP3      H1            -29.8817205720        3.2661175841      -12.7874963352  W2        4365            0.0000000000
     13095      4365  TIP3      H2            -30.9386805720        2.6167675841      -11.9197063352  W2        4365            0.0000000000
     13096      4366  TIP3      OH2           -30.1583405720        3.7480675841       -3.6490063352  W2        4366            0.0000000000
     13097      4366  TIP3      H1            -30.0393105720        4.3216075841       -2.8919663352  W2        4366            0.0000000000
     13098      4366  TIP3      H2            -29.5028805720        3.0600075841       -3.5342263352  W2        4366            0.0000000000
     13099      4367  TIP3      OH2           -29.8103105720       -0.1569024159      -11.8955563352  W2        4367            0.0000000000
     13100      4367  TIP3      H1            -30.1569605720        0.4601575841      -11.2511263352  W2        4367            0.0000000000
     13101      4367  TIP3      H2            -29.1516205720        0.3436675841      -12.3770063352  W2        4367            0.0000000000
     13102      4368  TIP3      OH2           -32.8870505720       14.2081175841      -14.8240663352  W2        4368            0.0000000000
     13103      4368  TIP3      H1            -32.7261805720       15.0078675841      -15.3248063352  W2        4368            0.0000000000
     13104      4368  TIP3      H2            -33.0842705720       14.5147175841      -13.9390063352  W2        4368            0.0000000000
     13105      4369  TIP3      OH2           -34.1526105720        0.9060375841      -15.2083063352  W2        4369            0.0000000000
     13106      4369  TIP3      H1            -34.2361305720        1.7943475841      -14.8616663352  W2        4369            0.0000000000
     13107      4369  TIP3      H2            -33.2625805720        0.6407075841      -14.9766263352  W2        4369            0.0000000000
     13108      4370  TIP3      OH2           -23.9537605720        1.6550975841       -2.8140363352  W2        4370            0.0000000000
     13109      4370  TIP3      H1            -24.8701805720        1.9172675841       -2.9016663352  W2        4370            0.0000000000
     13110      4370  TIP3      H2            -23.6182605720        1.6519975841       -3.7105063352  W2        4370            0.0000000000
     13111      4371  TIP3      OH2           -25.3516605720        5.4051975841       -8.7183063352  W2        4371            0.0000000000
     13112      4371  TIP3      H1            -26.1492205720        4.9902175841       -9.0468063352  W2        4371            0.0000000000
     13113      4371  TIP3      H2            -24.9065505720        4.7145675841       -8.2272563352  W2        4371            0.0000000000
     13114      4372  TIP3      OH2           -35.8940805720       11.3332575841      -16.1478563352  W2        4372            0.0000000000
     13115      4372  TIP3      H1            -35.3019305720       12.0327375841      -15.8716163352  W2        4372            0.0000000000
     13116      4372  TIP3      H2            -35.4347805720       10.9002075841      -16.8673963352  W2        4372            0.0000000000
     13117      4373  TIP3      OH2           -37.5781605720        3.9975575841      -17.0319163352  W2        4373            0.0000000000
     13118      4373  TIP3      H1            -37.6229005720        4.9368675841      -16.8532163352  W2        4373            0.0000000000
     13119      4373  TIP3      H2            -38.4658405720        3.7620475841      -17.3017063352  W2        4373            0.0000000000
     13120      4374  TIP3      OH2           -24.2652005720       14.6614475841       -7.0959563352  W2        4374            0.0000000000
     13121      4374  TIP3      H1            -24.4207705720       15.3398875841       -7.7530263352  W2        4374            0.0000000000
     13122      4374  TIP3      H2            -23.3325605720       14.7333775841       -6.8928963352  W2        4374            0.0000000000
     13123      4375  TIP3      OH2           -36.7699605720       -1.2207824159       -8.3588163352  W2        4375            0.0000000000
     13124      4375  TIP3      H1            -36.9989805720       -1.1615324159       -9.2863163352  W2        4375            0.0000000000
     13125      4375  TIP3      H2            -37.2126205720       -2.0122324159       -8.0524063352  W2        4375            0.0000000000
     13126      4376  TIP3      OH2           -37.8396305720       12.7199275841      -12.1982363352  W2        4376            0.0000000000
     13127      4376  TIP3      H1            -38.6717705720       13.1921975841      -12.1710963352  W2        4376            0.0000000000
     13128      4376  TIP3      H2            -37.2938005720       13.2296875841      -12.7969263352  W2        4376            0.0000000000
     13129      4377  TIP3      OH2           -38.5512605720       15.3322975841       -0.8684363352  W2        4377            0.0000000000
     13130      4377  TIP3      H1            -38.0110405720       15.1156975841       -0.1085163352  W2        4377            0.0000000000
     13131      4377  TIP3      H2            -39.0324605720       14.5268975841       -1.0581863352  W2        4377            0.0000000000
     13132      4378  TIP3      OH2           -33.9539205720       14.2517375841        0.7519836648  W2        4378            0.0000000000
     13133      4378  TIP3      H1            -33.1862005720       13.7928175841        1.0929036648  W2        4378            0.0000000000
     13134      4378  TIP3      H2            -33.9753005720       14.0257175841       -0.1778963352  W2        4378            0.0000000000
     13135      4379  TIP3      OH2           -29.8619605720       13.7597975841      -17.8728363352  W2        4379            0.0000000000
     13136      4379  TIP3      H1            -30.5058605720       13.1286575841      -17.5514663352  W2        4379            0.0000000000
     13137      4379  TIP3      H2            -29.1001305720       13.2285975841      -18.1044863352  W2        4379            0.0000000000
     13138      4380  TIP3      OH2           -27.3770505720       12.6318475841       -0.5188663352  W2        4380            0.0000000000
     13139      4380  TIP3      H1            -27.7281005720       11.7751475841       -0.2758263352  W2        4380            0.0000000000
     13140      4380  TIP3      H2            -26.6507305720       12.7745175841        0.0880336648  W2        4380            0.0000000000
     13141      4381  TIP3      OH2           -25.2576705720       13.5767875841      -17.6390363352  W2        4381            0.0000000000
     13142      4381  TIP3      H1            -24.9746305720       12.7823075841      -17.1863463352  W2        4381            0.0000000000
     13143      4381  TIP3      H2            -24.5178805720       13.8098875841      -18.1999263352  W2        4381            0.0000000000
     13144      4382  TIP3      OH2           -38.6443105720        9.1427075841        0.0859936648  W2        4382            0.0000000000
     13145      4382  TIP3      H1            -38.5002605720        8.2407775841       -0.2003363352  W2        4382            0.0000000000
     13146      4382  TIP3      H2            -39.4165705720        9.4289175841       -0.4017763352  W2        4382            0.0000000000
     13147      4383  TIP3      OH2           -34.3029405720        9.4862775841      -17.7815463352  W2        4383            0.0000000000
     13148      4383  TIP3      H1            -34.2385305720        8.6922375841      -17.2509063352  W2        4383            0.0000000000
     13149      4383  TIP3      H2            -33.6500205720        9.3675575841      -18.4713463352  W2        4383            0.0000000000
     13150      4384  TIP3      OH2           -31.9887005720        9.1125175841       -0.4813663352  W2        4384            0.0000000000
     13151      4384  TIP3      H1            -32.3173205720        9.3833275841       -1.3386263352  W2        4384            0.0000000000
     13152      4384  TIP3      H2            -31.8368805720        8.1714975841       -0.5688663352  W2        4384            0.0000000000
     13153      4385  TIP3      OH2           -28.9506005720       10.5334475841      -18.0457463352  W2        4385            0.0000000000
     13154      4385  TIP3      H1            -29.2191905720       10.7136575841      -17.1448563352  W2        4385            0.0000000000
     13155      4385  TIP3      H2            -29.1570405720        9.6080675841      -18.1771663352  W2        4385            0.0000000000
     13156      4386  TIP3      OH2           -26.2541805720        9.0282475841       -3.0981363352  W2        4386            0.0000000000
     13157      4386  TIP3      H1            -25.5087005720        9.6166175841       -3.2177363352  W2        4386            0.0000000000
     13158      4386  TIP3      H2            -27.0115005720        9.6102175841       -3.0348263352  W2        4386            0.0000000000
     13159      4387  TIP3      OH2           -37.8116605720        6.3430375841       -0.4940763352  W2        4387            0.0000000000
     13160      4387  TIP3      H1            -37.4035405720        5.4856975841       -0.6150163352  W2        4387            0.0000000000
     13161      4387  TIP3      H2            -38.0719005720        6.3571675841        0.4269536648  W2        4387            0.0000000000
     13162      4388  TIP3      OH2           -33.1535605720        7.4588975841      -15.4757463352  W2        4388            0.0000000000
     13163      4388  TIP3      H1            -33.6133605720        6.9747275841      -14.7898963352  W2        4388            0.0000000000
     13164      4388  TIP3      H2            -32.8986905720        6.7904375841      -16.1116963352  W2        4388            0.0000000000
     13165      4389  TIP3      OH2           -33.8646305720        5.3516075841       -3.1197863352  W2        4389            0.0000000000
     13166      4389  TIP3      H1            -34.4830205720        6.0262675841       -2.8393163352  W2        4389            0.0000000000
     13167      4389  TIP3      H2            -33.5205105720        5.6729975841       -3.9531663352  W2        4389            0.0000000000
     13168      4390  TIP3      OH2           -32.0825205720        5.7020775841      -17.2134263352  W2        4390            0.0000000000
     13169      4390  TIP3      H1            -32.2630205720        5.5471975841      -18.1405963352  W2        4390            0.0000000000
     13170      4390  TIP3      H2            -31.1324705720        5.8099475841      -17.1686363352  W2        4390            0.0000000000
     13171      4391  TIP3      OH2           -28.8448105720        7.8231375841        0.1576936648  W2        4391            0.0000000000
     13172      4391  TIP3      H1            -27.8916905720        7.9070475841        0.1302936648  W2        4391            0.0000000000
     13173      4391  TIP3      H2            -29.0053505720        7.1113175841        0.7771836648  W2        4391            0.0000000000
     13174      4392  TIP3      OH2           -22.6926905720        8.0564975841      -17.7676163352  W2        4392            0.0000000000
     13175      4392  TIP3      H1            -22.9662105720        7.6320475841      -18.5807863352  W2        4392            0.0000000000
     13176      4392  TIP3      H2            -22.6532805720        8.9879475841      -17.9845763352  W2        4392            0.0000000000
     13177      4393  TIP3      OH2           -33.5252605720        2.7066875841       -2.0374763352  W2        4393            0.0000000000
     13178      4393  TIP3      H1            -33.3751705720        1.9778175841       -2.6395063352  W2        4393            0.0000000000
     13179      4393  TIP3      H2            -33.5230205720        3.4838575841       -2.5962563352  W2        4393            0.0000000000
     13180      4394  TIP3      OH2           -33.1126905720        1.0762675841       -4.5447363352  W2        4394            0.0000000000
     13181      4394  TIP3      H1            -32.5769405720        1.5279375841       -5.1968063352  W2        4394            0.0000000000
     13182      4394  TIP3      H2            -33.9647305720        0.9682475841       -4.9673263352  W2        4394            0.0000000000
     13183      4395  TIP3      OH2           -31.5308505720        6.5158875841       -4.3052163352  W2        4395            0.0000000000
     13184      4395  TIP3      H1            -30.7803705720        6.3596375841       -4.8784363352  W2        4395            0.0000000000
     13185      4395  TIP3      H2            -31.8700205720        7.3675475841       -4.5806663352  W2        4395            0.0000000000
     13186      4396  TIP3      OH2           -27.1152305720        4.3310675841        0.7233136648  W2        4396            0.0000000000
     13187      4396  TIP3      H1            -26.9231005720        3.4000075841        0.6117636648  W2        4396            0.0000000000
     13188      4396  TIP3      H2            -26.2576005720        4.7560175841        0.7128536648  W2        4396            0.0000000000
     13189      4397  TIP3      OH2           -25.7985105720        7.1195875841       -1.1994163352  W2        4397            0.0000000000
     13190      4397  TIP3      H1            -26.0800105720        7.8290475841       -1.7770363352  W2        4397            0.0000000000
     13191      4397  TIP3      H2            -24.8560805720        7.0468875841       -1.3502963352  W2        4397            0.0000000000
     13192      4398  TIP3      OH2           -35.0466305720        3.9050375841       -0.1259163352  W2        4398            0.0000000000
     13193      4398  TIP3      H1            -35.8137305720        3.3725175841       -0.3361563352  W2        4398            0.0000000000
     13194      4398  TIP3      H2            -34.3677305720        3.5950775841       -0.7252863352  W2        4398            0.0000000000
     13195      4399  TIP3      OH2           -32.3071405720       -1.4671624159       -4.1133763352  W2        4399            0.0000000000
     13196      4399  TIP3      H1            -32.4051805720       -0.5208424159       -4.2187563352  W2        4399            0.0000000000
     13197      4399  TIP3      H2            -33.0495205720       -1.8397824159       -4.5890263352  W2        4399            0.0000000000
     13198      4400  TIP3      OH2           -31.0430905720        2.8543775841       -0.5495363352  W2        4400            0.0000000000
     13199      4400  TIP3      H1            -31.2785505720        2.6350475841        0.3519536648  W2        4400            0.0000000000
     13200      4400  TIP3      H2            -31.8264005720        2.6474975841       -1.0592863352  W2        4400            0.0000000000
     13201      4401  TIP3      OH2           -28.3274305720        1.9817275841       -1.4741863352  W2        4401            0.0000000000
     13202      4401  TIP3      H1            -29.2748905720        2.0136975841       -1.3418563352  W2        4401            0.0000000000
     13203      4401  TIP3      H2            -28.0147605720        1.3564375841       -0.8203663352  W2        4401            0.0000000000
     13204      4402  TIP3      OH2           -26.6932805720        0.6158375841        0.5310036648  W2        4402            0.0000000000
     13205      4402  TIP3      H1            -26.7901005720       -0.3364324159        0.5251936648  W2        4402            0.0000000000
     13206      4402  TIP3      H2            -27.0149705720        0.8845175841        1.3915536648  W2        4402            0.0000000000
     13207      4403  TIP3      OH2           -36.8663505720        1.8254175841       -0.4214463352  W2        4403            0.0000000000
     13208      4403  TIP3      H1            -36.6546105720        1.1190275841       -1.0316963352  W2        4403            0.0000000000
     13209      4403  TIP3      H2            -36.9776005720        1.3880175841        0.4226736648  W2        4403            0.0000000000
     13210      4404  TIP3      OH2           -32.0853305720       -2.1734224159       -1.4420963352  W2        4404            0.0000000000
     13211      4404  TIP3      H1            -31.3734905720       -2.8132024159       -1.4561863352  W2        4404            0.0000000000
     13212      4404  TIP3      H2            -32.1862905720       -1.9065924159       -2.3557863352  W2        4404            0.0000000000
     13213      4405  TIP3      OH2           -31.7315805720       -0.4905824159        0.6115336648  W2        4405            0.0000000000
     13214      4405  TIP3      H1            -31.8633605720       -0.9662024159       -0.2086163352  W2        4405            0.0000000000
     13215      4405  TIP3      H2            -32.3308405720        0.2537775841        0.5562436648  W2        4405            0.0000000000
     13216      4406  TIP3      OH2           -32.1853505720       16.3924475841      -16.2120663352  W2        4406            0.0000000000
     13217      4406  TIP3      H1            -31.2522805720       16.5503175841      -16.0682263352  W2        4406            0.0000000000
     13218      4406  TIP3      H2            -32.4494705720       17.0677475841      -16.8369163352  W2        4406            0.0000000000
     13219      4407  TIP3      OH2           -38.6168605720       11.0288275841      -16.7292563352  W2        4407            0.0000000000
     13220      4407  TIP3      H1            -37.7029405720       11.1077175841      -16.4558663352  W2        4407            0.0000000000
     13221      4407  TIP3      H2            -38.6095505720       10.3417875841      -17.3956963352  W2        4407            0.0000000000
     13222      4408  TIP3      OH2           -39.9678005720       16.4216775841      -11.6518663352  W2        4408            0.0000000000
     13223      4408  TIP3      H1            -40.6150905720       15.9598475841      -12.1847463352  W2        4408            0.0000000000
     13224      4408  TIP3      H2            -39.6133405720       15.7500075841      -11.0692463352  W2        4408            0.0000000000
     13225      4409  TIP3      OH2           -39.0978805720       14.5023775841       -9.8472463352  W2        4409            0.0000000000
     13226      4409  TIP3      H1            -39.4322005720       13.6221075841       -9.6752263352  W2        4409            0.0000000000
     13227      4409  TIP3      H2            -38.8756405720       14.8478775841       -8.9826863352  W2        4409            0.0000000000
     13228      4410  TIP3      OH2           -21.5494005720       15.3120175841       -6.8667663352  W2        4410            0.0000000000
     13229      4410  TIP3      H1            -21.5707305720       15.4968575841       -5.9278263352  W2        4410            0.0000000000
     13230      4410  TIP3      H2            -20.8587805720       15.8804175841       -7.2076263352  W2        4410            0.0000000000
     13231      4411  TIP3      OH2           -21.9861105720       14.8791275841       -3.9448563352  W2        4411            0.0000000000
     13232      4411  TIP3      H1            -22.4732405720       14.1435375841       -4.3161163352  W2        4411            0.0000000000
     13233      4411  TIP3      H2            -21.4368405720       14.4855175841       -3.2669163352  W2        4411            0.0000000000
     13234      4412  TIP3      OH2           -23.5353805720       10.6689375841        0.6931736648  W2        4412            0.0000000000
     13235      4412  TIP3      H1            -24.4012705720       10.5639075841        1.0874036648  W2        4412            0.0000000000
     13236      4412  TIP3      H2            -23.1587905720       11.4272675841        1.1396436648  W2        4412            0.0000000000
     13237      4413  TIP3      OH2           -22.2344105720        8.9253075841      -13.7925763352  W2        4413            0.0000000000
     13238      4413  TIP3      H1            -21.3842705720        9.3463975841      -13.6654163352  W2        4413            0.0000000000
     13239      4413  TIP3      H2            -22.2289005720        8.1853175841      -13.1854363352  W2        4413            0.0000000000
     13240      4414  TIP3      OH2           -21.8398505720        6.9790475841      -11.9690063352  W2        4414            0.0000000000
     13241      4414  TIP3      H1            -22.5663905720        6.4993075841      -11.5712463352  W2        4414            0.0000000000
     13242      4414  TIP3      H2            -21.2585205720        7.1845175841      -11.2368463352  W2        4414            0.0000000000
     13243      4415  TIP3      OH2           -22.0807305720        9.7637975841       -7.0212463352  W2        4415            0.0000000000
     13244      4415  TIP3      H1            -21.2473105720        9.3857975841       -7.3018863352  W2        4415            0.0000000000
     13245      4415  TIP3      H2            -21.9687005720       10.7069175841       -7.1403363352  W2        4415            0.0000000000
     13246      4416  TIP3      OH2           -23.5945005720       12.6415475841       -4.7144063352  W2        4416            0.0000000000
     13247      4416  TIP3      H1            -24.2419705720       12.9666975841       -4.0888863352  W2        4416            0.0000000000
     13248      4416  TIP3      H2            -24.1121005720       12.2013175841       -5.3885763352  W2        4416            0.0000000000
     13249      4417  TIP3      OH2           -21.5715405720        6.8798975841      -15.5778763352  W2        4417            0.0000000000
     13250      4417  TIP3      H1            -22.0934305720        7.2363075841      -16.2967863352  W2        4417            0.0000000000
     13251      4417  TIP3      H2            -21.6046205720        7.5546775841      -14.8997863352  W2        4417            0.0000000000
     13252      4418  TIP3      OH2           -23.2226405720        4.1194575841      -17.0271663352  W2        4418            0.0000000000
     13253      4418  TIP3      H1            -23.1262005720        4.7861575841      -17.7071963352  W2        4418            0.0000000000
     13254      4418  TIP3      H2            -23.3626805720        3.3040875841      -17.5086163352  W2        4418            0.0000000000
     13255      4419  TIP3      OH2           -24.0531705720        5.4996975841      -11.4061363352  W2        4419            0.0000000000
     13256      4419  TIP3      H1            -24.2032905720        4.5545575841      -11.4263563352  W2        4419            0.0000000000
     13257      4419  TIP3      H2            -24.4067205720        5.7808375841      -10.5622263352  W2        4419            0.0000000000
     13258      4420  TIP3      OH2           -39.0179305720        7.5779175841       -7.3957563352  W2        4420            0.0000000000
     13259      4420  TIP3      H1            -38.8336405720        7.4960875841       -8.3314663352  W2        4420            0.0000000000
     13260      4420  TIP3      H2            -38.1686405720        7.4536175841       -6.9721163352  W2        4420            0.0000000000
     13261      4421  TIP3      OH2           -23.1968805720        7.4700275841       -1.7673063352  W2        4421            0.0000000000
     13262      4421  TIP3      H1            -22.6141505720        6.7352575841       -1.5755863352  W2        4421            0.0000000000
     13263      4421  TIP3      H2            -22.6329505720        8.2420575841       -1.7207263352  W2        4421            0.0000000000
     13264      4422  TIP3      OH2           -21.7001705720        5.3726075841       -1.0827663352  W2        4422            0.0000000000
     13265      4422  TIP3      H1            -22.5635005720        4.9938175841       -1.2482963352  W2        4422            0.0000000000
     13266      4422  TIP3      H2            -21.0958005720        4.6340875841       -1.1571863352  W2        4422            0.0000000000
     13267      4423  TIP3      OH2           -23.9752605720        1.5274375841      -17.9096163352  W2        4423            0.0000000000
     13268      4423  TIP3      H1            -23.3646805720        1.1561175841      -17.2727963352  W2        4423            0.0000000000
     13269      4423  TIP3      H2            -24.8121105720        1.1061275841      -17.7136163352  W2        4423            0.0000000000
     13270      4424  TIP3      OH2           -24.3426905720        3.0822775841      -12.9436263352  W2        4424            0.0000000000
     13271      4424  TIP3      H1            -24.0629805720        2.1753175841      -12.8194563352  W2        4424            0.0000000000
     13272      4424  TIP3      H2            -23.5835205720        3.5164275841      -13.3327063352  W2        4424            0.0000000000
     13273      4425  TIP3      OH2           -23.7308605720        3.6640175841       -7.5077363352  W2        4425            0.0000000000
     13274      4425  TIP3      H1            -22.7980605720        3.8760075841       -7.5421363352  W2        4425            0.0000000000
     13275      4425  TIP3      H2            -23.9661105720        3.7652275841       -6.5854363352  W2        4425            0.0000000000
     13276      4426  TIP3      OH2           -23.7016705720        4.4005475841       -4.7317963352  W2        4426            0.0000000000
     13277      4426  TIP3      H1            -24.5445405720        4.6685875841       -4.3658163352  W2        4426            0.0000000000
     13278      4426  TIP3      H2            -23.2592405720        5.2227375841       -4.9426863352  W2        4426            0.0000000000
     13279      4427  TIP3      OH2           -39.4204505720        2.8484175841       -1.2548763352  W2        4427            0.0000000000
     13280      4427  TIP3      H1            -38.5009605720        2.7262475841       -1.0185663352  W2        4427            0.0000000000
     13281      4427  TIP3      H2            -39.8700005720        2.0983875841       -0.8655263352  W2        4427            0.0000000000
     13282      4428  TIP3      OH2           -21.4185105720       -1.6194324159        0.6217036648  W2        4428            0.0000000000
     13283      4428  TIP3      H1            -21.0688105720       -2.2730824159        0.0161736648  W2        4428            0.0000000000
     13284      4428  TIP3      H2            -21.2715605720       -0.7820224159        0.1819636648  W2        4428            0.0000000000
     13285      4429  TIP3      OH2           -23.7292105720        0.3452075841      -12.8954263352  W2        4429            0.0000000000
     13286      4429  TIP3      H1            -23.5467105720       -0.1036424159      -12.0699263352  W2        4429            0.0000000000
     13287      4429  TIP3      H2            -24.3289205720       -0.2393524159      -13.3589663352  W2        4429            0.0000000000
     13288      4430  TIP3      OH2           -38.1992005720        1.1605775841       -8.3635863352  W2        4430            0.0000000000
     13289      4430  TIP3      H1            -37.7540405720        0.3688275841       -8.0616163352  W2        4430            0.0000000000
     13290      4430  TIP3      H2            -37.7329005720        1.8770975841       -7.9330263352  W2        4430            0.0000000000
     13291      4431  TIP3      OH2           -39.8951705720        4.1598775841       -7.2945663352  W2        4431            0.0000000000
     13292      4431  TIP3      H1            -39.4031905720        3.9389275841       -8.0853663352  W2        4431            0.0000000000
     13293      4431  TIP3      H2            -39.5330805720        5.0002175841       -7.0136163352  W2        4431            0.0000000000
     13294      4432  TIP3      OH2           -21.8987905720        0.4900275841       -1.0291663352  W2        4432            0.0000000000
     13295      4432  TIP3      H1            -22.8162205720        0.7607375841       -1.0648163352  W2        4432            0.0000000000
     13296      4432  TIP3      H2            -21.7758505720       -0.0451324159       -1.8131963352  W2        4432            0.0000000000
     13297      4433  TIP3      OH2           -21.8625905720        0.4130175841      -16.3673963352  W2        4433            0.0000000000
     13298      4433  TIP3      H1            -21.4503305720       -0.3084124159      -16.8425963352  W2        4433            0.0000000000
     13299      4433  TIP3      H2            -21.1809405720        1.0824775841      -16.3089663352  W2        4433            0.0000000000
     13300      4434  TIP3      OH2           -39.5815205720        0.4177875841      -13.2403263352  W2        4434            0.0000000000
     13301      4434  TIP3      H1            -40.5066805720        0.6264475841      -13.3697763352  W2        4434            0.0000000000
     13302      4434  TIP3      H2            -39.1275305720        0.9018675841      -13.9300963352  W2        4434            0.0000000000
     13303      4435  TIP3      OH2           -24.8108005720       15.4019575841      -11.2945863352  W2        4435            0.0000000000
     13304      4435  TIP3      H1            -24.1585105720       15.0541675841      -11.9026763352  W2        4435            0.0000000000
     13305      4435  TIP3      H2            -24.3004205720       15.8902775841      -10.6486163352  W2        4435            0.0000000000
     13306      4436  TIP3      OH2           -39.6179805720       -0.8443124159       -4.8960763352  W2        4436            0.0000000000
     13307      4436  TIP3      H1            -40.2829305720       -1.0902824159       -4.2529863352  W2        4436            0.0000000000
     13308      4436  TIP3      H2            -40.0608505720       -0.2222724159       -5.4732763352  W2        4436            0.0000000000
     13309      4437  TIP3      OH2           -37.4260505720       12.3310975841       -0.7514963352  W2        4437            0.0000000000
     13310      4437  TIP3      H1            -38.2468005720       12.5057475841       -1.2120263352  W2        4437            0.0000000000
     13311      4437  TIP3      H2            -37.6782705720       12.2575675841        0.1689436648  W2        4437            0.0000000000
     13312      4438  TIP3      OH2           -34.4717605720       13.3052175841       -4.4930963352  W2        4438            0.0000000000
     13313      4438  TIP3      H1            -34.8966505720       14.1150675841       -4.7756363352  W2        4438            0.0000000000
     13314      4438  TIP3      H2            -33.5674805720       13.3906275841       -4.7951163352  W2        4438            0.0000000000
     13315      4439  TIP3      OH2           -30.1606205720       14.7042175841       -1.5337263352  W2        4439            0.0000000000
     13316      4439  TIP3      H1            -29.9758705720       14.3708275841       -0.6556963352  W2        4439            0.0000000000
     13317      4439  TIP3      H2            -29.3141705720       15.0140775841       -1.8558063352  W2        4439            0.0000000000
     13318      4440  TIP3      OH2           -27.8155805720       15.9901075841       -2.2895863352  W2        4440            0.0000000000
     13319      4440  TIP3      H1            -27.1386905720       15.3573375841       -2.5296663352  W2        4440            0.0000000000
     13320      4440  TIP3      H2            -27.4937005720       16.3911575841       -1.4822563352  W2        4440            0.0000000000
     13321      4441  TIP3      OH2           -22.8982005720       -1.4203424159       -3.2100863352  W2        4441            0.0000000000
     13322      4441  TIP3      H1            -23.7108505720       -1.0953124159       -3.5976163352  W2        4441            0.0000000000
     13323      4441  TIP3      H2            -22.6653505720       -2.1804924159       -3.7431763352  W2        4441            0.0000000000
     13324      4442  TIP3      OH2           -37.0700905720       16.5616075841       -4.4455663352  W2        4442            0.0000000000
     13325      4442  TIP3      H1            -37.7904505720       17.0017075841       -4.8967963352  W2        4442            0.0000000000
     13326      4442  TIP3      H2            -37.4356905720       16.3110775841       -3.5971663352  W2        4442            0.0000000000
     13327      4443  TIP3      OH2           -34.6028305720       16.1619975841       -5.4158463352  W2        4443            0.0000000000
     13328      4443  TIP3      H1            -35.4676105720       16.2338475841       -5.0118363352  W2        4443            0.0000000000
     13329      4443  TIP3      H2            -34.6579305720       16.7087275841       -6.1995963352  W2        4443            0.0000000000
     13330      4444  TIP3      OH2           -29.8922705720       16.0498875841       -6.2402463352  W2        4444            0.0000000000
     13331      4444  TIP3      H1            -30.3488705720       16.5788575841       -6.8944063352  W2        4444            0.0000000000
     13332      4444  TIP3      H2            -29.7294705720       16.6530275841       -5.5150163352  W2        4444            0.0000000000
     13333      4445  TIP3      OH2           -27.5646405720       14.9278475841       -5.2952163352  W2        4445            0.0000000000
     13334      4445  TIP3      H1            -28.4692705720       15.0928675841       -5.5610063352  W2        4445            0.0000000000
     13335      4445  TIP3      H2            -27.1357805720       15.7810675841       -5.3608763352  W2        4445            0.0000000000
     13336      4446  TIP3      OH2           -24.9604505720       16.4977575841       -5.0004363352  W2        4446            0.0000000000
     13337      4446  TIP3      H1            -25.1422505720       17.4136475841       -5.2109463352  W2        4446            0.0000000000
     13338      4446  TIP3      H2            -24.7836705720       16.0874675841       -5.8469763352  W2        4446            0.0000000000
     13339      4447  TIP3      OH2           -37.6552805720       15.1848575841       -7.5353863352  W2        4447            0.0000000000
     13340      4447  TIP3      H1            -37.6736805720       14.7593675841       -6.6781563352  W2        4447            0.0000000000
     13341      4447  TIP3      H2            -36.8504905720       14.8663575841       -7.9441663352  W2        4447            0.0000000000
     13342      4448  TIP3      OH2           -35.5139705720       13.8947275841       -8.8803963352  W2        4448            0.0000000000
     13343      4448  TIP3      H1            -35.7329005720       12.9784675841       -8.7107963352  W2        4448            0.0000000000
     13344      4448  TIP3      H2            -34.6897505720       14.0347675841       -8.4142563352  W2        4448            0.0000000000
     13345      4449  TIP3      OH2           -32.9767205720       14.3646575841       -8.0315963352  W2        4449            0.0000000000
     13346      4449  TIP3      H1            -32.7641505720       13.4765575841       -8.3185063352  W2        4449            0.0000000000
     13347      4449  TIP3      H2            -32.9122105720       14.3304275841       -7.0771963352  W2        4449            0.0000000000
     13348      4450  TIP3      OH2           -29.4683505720        0.0287175841       -8.8872663352  W2        4450            0.0000000000
     13349      4450  TIP3      H1            -30.1426705720       -0.6007224159       -8.6316863352  W2        4450            0.0000000000
     13350      4450  TIP3      H2            -28.9044305720       -0.4553924159       -9.4904763352  W2        4450            0.0000000000
     13351      4451  TIP3      OH2           -24.3256305720       -1.8638824159       -8.7745563352  W2        4451            0.0000000000
     13352      4451  TIP3      H1            -23.7218705720       -1.3163424159       -9.2764563352  W2        4451            0.0000000000
     13353      4451  TIP3      H2            -25.1954305720       -1.5448424159       -9.0151463352  W2        4451            0.0000000000
     13354      4452  TIP3      OH2           -22.5985905720       -0.7250124159      -10.4414663352  W2        4452            0.0000000000
     13355      4452  TIP3      H1            -21.9868405720       -1.2394424159      -10.9681063352  W2        4452            0.0000000000
     13356      4452  TIP3      H2            -22.2162505720        0.1521975841      -10.4180263352  W2        4452            0.0000000000
     13357      4453  TIP3      OH2           -37.1416005720       -1.3372524159      -11.0652763352  W2        4453            0.0000000000
     13358      4453  TIP3      H1            -37.9186205720       -1.5717624159      -11.5726863352  W2        4453            0.0000000000
     13359      4453  TIP3      H2            -36.6112405720       -2.1340424159      -11.0564763352  W2        4453            0.0000000000
     13360      4454  TIP3      OH2           -38.3052605720       -1.5394424159      -15.2616663352  W2        4454            0.0000000000
     13361      4454  TIP3      H1            -37.8661905720       -0.9283924159      -15.8533163352  W2        4454            0.0000000000
     13362      4454  TIP3      H2            -38.9390205720       -1.0010324159      -14.7876663352  W2        4454            0.0000000000
     13363      4455  TIP3      OH2           -32.5623405720       -1.4105424159      -11.2519663352  W2        4455            0.0000000000
     13364      4455  TIP3      H1            -31.6880005720       -1.0221124159      -11.2815363352  W2        4455            0.0000000000
     13365      4455  TIP3      H2            -32.6982605720       -1.6257624159      -10.3292463352  W2        4455            0.0000000000
     13366      4456  TIP3      OH2           -27.0055005720       -1.3805624159       -9.6027963352  W2        4456            0.0000000000
     13367      4456  TIP3      H1            -26.9293405720       -1.2854024159      -10.5521963352  W2        4456            0.0000000000
     13368      4456  TIP3      H2            -27.2805805720       -2.2882724159       -9.4738863352  W2        4456            0.0000000000
     13369      4457  TIP3      OH2           -25.6522405720       -1.3547824159      -13.9102963352  W2        4457            0.0000000000
     13370      4457  TIP3      H1            -26.3551305720       -0.7398624159      -14.1201563352  W2        4457            0.0000000000
     13371      4457  TIP3      H2            -26.0971005720       -2.1921124159      -13.7792063352  W2        4457            0.0000000000
     13372      4458  TIP3      OH2           -38.4043105720       14.4087775841      -14.3641563352  W2        4458            0.0000000000
     13373      4458  TIP3      H1            -39.0893205720       14.3706675841      -15.0316463352  W2        4458            0.0000000000
     13374      4458  TIP3      H2            -38.4005905720       15.3215375841      -14.0759463352  W2        4458            0.0000000000
     13375      4459  TIP3      OH2           -36.4443505720        0.3767075841      -16.8192563352  W2        4459            0.0000000000
     13376      4459  TIP3      H1            -35.9530105720       -0.2530524159      -17.3467063352  W2        4459            0.0000000000
     13377      4459  TIP3      H2            -35.8207205720        0.6726475841      -16.1561363352  W2        4459            0.0000000000
     13378      4460  TIP3      OH2           -31.4183405720        0.6698575841      -14.3622063352  W2        4460            0.0000000000
     13379      4460  TIP3      H1            -31.2402105720        0.0231775841      -13.6793463352  W2        4460            0.0000000000
     13380      4460  TIP3      H2            -31.4717205720        1.5036275841      -13.8950963352  W2        4460            0.0000000000
     13381      4461  TIP3      OH2           -29.5399605720       15.6182675841      -15.9665363352  W2        4461            0.0000000000
     13382      4461  TIP3      H1            -28.6739405720       15.9850075841      -16.1447163352  W2        4461            0.0000000000
     13383      4461  TIP3      H2            -29.7866805720       15.1790675841      -16.7804563352  W2        4461            0.0000000000
     13384      4462  TIP3      OH2           -22.8310005720       15.1812975841      -13.2874263352  W2        4462            0.0000000000
     13385      4462  TIP3      H1            -23.0252905720       14.4335075841      -13.8524663352  W2        4462            0.0000000000
     13386      4462  TIP3      H2            -22.8699905720       15.9393075841      -13.8706363352  W2        4462            0.0000000000
     13387      4463  TIP3      OH2           -37.1838005720       -0.8230624159       -1.5476563352  W2        4463            0.0000000000
     13388      4463  TIP3      H1            -37.5499805720       -1.5888024159       -1.1051863352  W2        4463            0.0000000000
     13389      4463  TIP3      H2            -36.2709505720       -0.7940424159       -1.2611463352  W2        4463            0.0000000000
     13390      4464  TIP3      OH2           -35.2107205720       -1.4726224159       -0.0119463352  W2        4464            0.0000000000
     13391      4464  TIP3      H1            -34.3123605720       -1.7466024159       -0.1966063352  W2        4464            0.0000000000
     13392      4464  TIP3      H2            -35.5974105720       -2.2150224159        0.4523136648  W2        4464            0.0000000000
     13393      4465  TIP3      OH2           -36.5861905720       15.3288575841      -17.3389463352  W2        4465            0.0000000000
     13394      4465  TIP3      H1            -36.8537305720       15.6151475841      -16.4656363352  W2        4465            0.0000000000
     13395      4465  TIP3      H2            -35.8149305720       14.7827775841      -17.1866963352  W2        4465            0.0000000000
     13396      4466  TIP3      OH2           -26.7894905720       -2.1400924159        0.1703336648  W2        4466            0.0000000000
     13397      4466  TIP3      H1            -26.7127705720       -2.5660224159        1.0241036648  W2        4466            0.0000000000
     13398      4466  TIP3      H2            -25.8958305720       -2.1266224159       -0.1723163352  W2        4466            0.0000000000
     13399      4467  TIP3      OH2           -23.6133805720       13.9325375841       -1.1372463352  W2        4467            0.0000000000
     13400      4467  TIP3      H1            -24.3951905720       13.7463375841       -1.6571863352  W2        4467            0.0000000000
     13401      4467  TIP3      H2            -23.6853905720       14.8619675841       -0.9199963352  W2        4467            0.0000000000
     13402      4468  TIP3      OH2            -9.2073405720        7.8189775841      -11.1065263352  W2        4468            0.0000000000
     13403      4468  TIP3      H1             -9.1182305720        8.7627975841      -11.2388163352  W2        4468            0.0000000000
     13404      4468  TIP3      H2             -9.8455805720        7.5436175841      -11.7645863352  W2        4468            0.0000000000
     13405      4469  TIP3      OH2           -10.2742105720        7.0740475841       -7.6877063352  W2        4469            0.0000000000
     13406      4469  TIP3      H1            -10.3124605720        6.4276775841       -6.9827463352  W2        4469            0.0000000000
     13407      4469  TIP3      H2            -10.5965605720        6.6074875841       -8.4588363352  W2        4469            0.0000000000
     13408      4470  TIP3      OH2           -17.9057105720        6.6882575841       -6.0947163352  W2        4470            0.0000000000
     13409      4470  TIP3      H1            -17.8645005720        6.0625875841       -5.3714763352  W2        4470            0.0000000000
     13410      4470  TIP3      H2            -17.2029405720        7.3121175841       -5.9126763352  W2        4470            0.0000000000
     13411      4471  TIP3      OH2            -6.5681905720       10.0130875841       -9.3861963352  W2        4471            0.0000000000
     13412      4471  TIP3      H1             -7.0089205720        9.2926875841       -8.9356363352  W2        4471            0.0000000000
     13413      4471  TIP3      H2             -6.5812205720       10.7338075841       -8.7564263352  W2        4471            0.0000000000
     13414      4472  TIP3      OH2           -16.9824005720       11.1381475841       -7.5598063352  W2        4472            0.0000000000
     13415      4472  TIP3      H1            -17.3518805720       10.3361975841       -7.9293763352  W2        4472            0.0000000000
     13416      4472  TIP3      H2            -16.0412905720       10.9696375841       -7.5134663352  W2        4472            0.0000000000
     13417      4473  TIP3      OH2           -20.3723505720        4.7984075841      -12.1669263352  W2        4473            0.0000000000
     13418      4473  TIP3      H1            -20.8200105720        5.6442775841      -12.1852763352  W2        4473            0.0000000000
     13419      4473  TIP3      H2            -20.9332305720        4.2188275841      -12.6824163352  W2        4473            0.0000000000
     13420      4474  TIP3      OH2           -19.6617405720        6.9603675841      -10.0411263352  W2        4474            0.0000000000
     13421      4474  TIP3      H1            -19.4483905720        6.1905275841       -9.5138263352  W2        4474            0.0000000000
     13422      4474  TIP3      H2            -18.9239805720        7.0500375841      -10.6443663352  W2        4474            0.0000000000
     13423      4475  TIP3      OH2            -9.4566405720       15.1172575841       -9.1741563352  W2        4475            0.0000000000
     13424      4475  TIP3      H1             -8.8370005720       14.4407275841       -9.4472363352  W2        4475            0.0000000000
     13425      4475  TIP3      H2             -9.6649005720       14.8993375841       -8.2656663352  W2        4475            0.0000000000
     13426      4476  TIP3      OH2           -11.8847705720        9.5061875841       -7.2816063352  W2        4476            0.0000000000
     13427      4476  TIP3      H1            -11.5809805720        8.8203275841       -7.8761963352  W2        4476            0.0000000000
     13428      4476  TIP3      H2            -11.1633705720        9.6250575841       -6.6638063352  W2        4476            0.0000000000
     13429      4477  TIP3      OH2            -3.2217905720        1.1077175841       -6.4209863352  W2        4477            0.0000000000
     13430      4477  TIP3      H1             -3.1725705720        1.7178375841       -5.6850763352  W2        4477            0.0000000000
     13431      4477  TIP3      H2             -2.7962805720        1.5688075841       -7.1438763352  W2        4477            0.0000000000
     13432      4478  TIP3      OH2            -8.7440705720        3.9004275841       -6.9541263352  W2        4478            0.0000000000
     13433      4478  TIP3      H1             -8.6014805720        2.9541275841       -6.9339663352  W2        4478            0.0000000000
     13434      4478  TIP3      H2             -8.8501705720        4.1074075841       -7.8826363352  W2        4478            0.0000000000
     13435      4479  TIP3      OH2           -15.5892405720        2.0020675841       -9.6816463352  W2        4479            0.0000000000
     13436      4479  TIP3      H1            -15.5461305720        2.8619175841      -10.1000163352  W2        4479            0.0000000000
     13437      4479  TIP3      H2            -16.0468305720        1.4495375841      -10.3153263352  W2        4479            0.0000000000
     13438      4480  TIP3      OH2            -7.8669705720        2.1326275841      -11.2808163352  W2        4480            0.0000000000
     13439      4480  TIP3      H1             -7.2205405720        1.8039475841      -10.6560563352  W2        4480            0.0000000000
     13440      4480  TIP3      H2             -7.3570305720        2.6505275841      -11.9036763352  W2        4480            0.0000000000
     13441      4481  TIP3      OH2           -18.9690905720        4.3986475841       -8.9195063352  W2        4481            0.0000000000
     13442      4481  TIP3      H1            -18.3154305720        3.8488175841       -8.4874963352  W2        4481            0.0000000000
     13443      4481  TIP3      H2            -18.9451605720        4.1245475841       -9.8363063352  W2        4481            0.0000000000
     13444      4482  TIP3      OH2           -13.8126405720        5.9487775841       -9.7043563352  W2        4482            0.0000000000
     13445      4482  TIP3      H1            -13.1965405720        5.4223175841       -9.1949563352  W2        4482            0.0000000000
     13446      4482  TIP3      H2            -14.3987605720        5.3086475841      -10.1079963352  W2        4482            0.0000000000
     13447      4483  TIP3      OH2            -2.8303305720        2.5856375841       -4.1850063352  W2        4483            0.0000000000
     13448      4483  TIP3      H1             -3.5188705720        3.2437075841       -4.2803463352  W2        4483            0.0000000000
     13449      4483  TIP3      H2             -2.8148705720        2.3884275841       -3.2484663352  W2        4483            0.0000000000
     13450      4484  TIP3      OH2           -16.7790505720        0.9199075841       -5.6075663352  W2        4484            0.0000000000
     13451      4484  TIP3      H1            -16.9978805720        1.4499675841       -6.3739663352  W2        4484            0.0000000000
     13452      4484  TIP3      H2            -17.4469605720        1.1464575841       -4.9604263352  W2        4484            0.0000000000
     13453      4485  TIP3      OH2            -9.4100705720       10.4200175841      -12.0636563352  W2        4485            0.0000000000
     13454      4485  TIP3      H1             -9.7055605720       10.0972475841      -12.9149663352  W2        4485            0.0000000000
     13455      4485  TIP3      H2             -9.7342905720       11.3196875841      -12.0223963352  W2        4485            0.0000000000
     13456      4486  TIP3      OH2           -14.2099105720        8.5954775841       -5.3201963352  W2        4486            0.0000000000
     13457      4486  TIP3      H1            -14.9500005720        9.1936275841       -5.2166763352  W2        4486            0.0000000000
     13458      4486  TIP3      H2            -13.4959605720        9.1494375841       -5.6358363352  W2        4486            0.0000000000
     13459      4487  TIP3      OH2            -6.1031305720        1.4235575841       -9.3002263352  W2        4487            0.0000000000
     13460      4487  TIP3      H1             -6.3183305720        0.6578975841       -8.7676263352  W2        4487            0.0000000000
     13461      4487  TIP3      H2             -5.4473905720        1.8960175841       -8.7873763352  W2        4487            0.0000000000
     13462      4488  TIP3      OH2           -17.1853205720        2.8120875841       -7.6553463352  W2        4488            0.0000000000
     13463      4488  TIP3      H1            -16.5716905720        3.4448475841       -7.2821063352  W2        4488            0.0000000000
     13464      4488  TIP3      H2            -16.6732505720        2.3395875841       -8.3116563352  W2        4488            0.0000000000
     13465      4489  TIP3      OH2           -15.8024805720       10.5597775841       -4.5330463352  W2        4489            0.0000000000
     13466      4489  TIP3      H1            -15.8077205720       11.4391275841       -4.9111163352  W2        4489            0.0000000000
     13467      4489  TIP3      H2            -16.6560705720       10.4761875841       -4.1080563352  W2        4489            0.0000000000
     13468      4490  TIP3      OH2           -19.6813905720       10.2305675841      -13.7511163352  W2        4490            0.0000000000
     13469      4490  TIP3      H1            -19.9533005720       10.4596675841      -14.6398263352  W2        4490            0.0000000000
     13470      4490  TIP3      H2            -19.6358205720       11.0684475841      -13.2905863352  W2        4490            0.0000000000
     13471      4491  TIP3      OH2            -6.0564205720       11.8521575841       -7.0382663352  W2        4491            0.0000000000
     13472      4491  TIP3      H1             -6.9980505720       11.9105475841       -6.8765763352  W2        4491            0.0000000000
     13473      4491  TIP3      H2             -5.7798105720       12.7582075841       -7.1752963352  W2        4491            0.0000000000
     13474      4492  TIP3      OH2            -5.7557205720        0.1386875841       -5.6208763352  W2        4492            0.0000000000
     13475      4492  TIP3      H1             -6.4918005720        0.7493975841       -5.6587463352  W2        4492            0.0000000000
     13476      4492  TIP3      H2             -5.0723205720        0.5535875841       -6.1472363352  W2        4492            0.0000000000
     13477      4493  TIP3      OH2           -12.7525805720       -1.7745824159       -8.1550763352  W2        4493            0.0000000000
     13478      4493  TIP3      H1            -12.8701605720       -2.7229824159       -8.2092463352  W2        4493            0.0000000000
     13479      4493  TIP3      H2            -13.6075705720       -1.4419724159       -7.8819663352  W2        4493            0.0000000000
     13480      4494  TIP3      OH2            -7.8043005720       13.6335075841      -10.4131063352  W2        4494            0.0000000000
     13481      4494  TIP3      H1             -7.3790705720       12.9262975841      -10.8981463352  W2        4494            0.0000000000
     13482      4494  TIP3      H2             -7.4873005720       14.4347775841      -10.8298863352  W2        4494            0.0000000000
     13483      4495  TIP3      OH2            -6.6446505720       11.5343575841      -11.9044463352  W2        4495            0.0000000000
     13484      4495  TIP3      H1             -6.9021705720       10.8443675841      -12.5158563352  W2        4495            0.0000000000
     13485      4495  TIP3      H2             -6.5735705720       11.0914775841      -11.0588563352  W2        4495            0.0000000000
     13486      4496  TIP3      OH2            -4.9586305720       10.1010275841       -3.4270963352  W2        4496            0.0000000000
     13487      4496  TIP3      H1             -4.8190005720        9.5092775841       -4.1663963352  W2        4496            0.0000000000
     13488      4496  TIP3      H2             -4.7913505720       10.9736175841       -3.7832163352  W2        4496            0.0000000000
     13489      4497  TIP3      OH2           -10.4860905720        7.0629775841      -13.6544963352  W2        4497            0.0000000000
     13490      4497  TIP3      H1            -11.1975405720        7.5979475841      -14.0064463352  W2        4497            0.0000000000
     13491      4497  TIP3      H2             -9.7951305720        7.1181875841      -14.3146063352  W2        4497            0.0000000000
     13492      4498  TIP3      OH2           -10.4321705720        5.5204075841      -16.6159963352  W2        4498            0.0000000000
     13493      4498  TIP3      H1             -9.7311805720        5.5430975841      -15.9645963352  W2        4498            0.0000000000
     13494      4498  TIP3      H2            -10.1298805720        4.8923775841      -17.2720663352  W2        4498            0.0000000000
     13495      4499  TIP3      OH2            -3.1167005720        6.4408275841       -5.3610563352  W2        4499            0.0000000000
     13496      4499  TIP3      H1             -3.7692905720        7.1353875841       -5.2719663352  W2        4499            0.0000000000
     13497      4499  TIP3      H2             -2.6516705720        6.6509175841       -6.1708963352  W2        4499            0.0000000000
     13498      4500  TIP3      OH2            -7.0803205720        7.2723075841      -12.7029063352  W2        4500            0.0000000000
     13499      4500  TIP3      H1             -7.8122205720        7.5006775841      -12.1298463352  W2        4500            0.0000000000
     13500      4500  TIP3      H2             -6.6331005720        6.5585775841      -12.2481563352  W2        4500            0.0000000000
     13501      4501  TIP3      OH2            -7.1829705720        5.4465675841       -3.6352063352  W2        4501            0.0000000000
     13502      4501  TIP3      H1             -7.1030605720        6.2100075841       -3.0633563352  W2        4501            0.0000000000
     13503      4501  TIP3      H2             -7.7842005720        5.7258075841       -4.3256963352  W2        4501            0.0000000000
     13504      4502  TIP3      OH2           -15.4349505720        7.9029275841      -10.8204063352  W2        4502            0.0000000000
     13505      4502  TIP3      H1            -15.7654305720        7.5322675841      -11.6387063352  W2        4502            0.0000000000
     13506      4502  TIP3      H2            -14.8465405720        7.2323275841      -10.4735763352  W2        4502            0.0000000000
     13507      4503  TIP3      OH2           -14.0682005720       11.3309875841       -8.1391863352  W2        4503            0.0000000000
     13508      4503  TIP3      H1            -14.1630705720       10.7522975841       -8.8957263352  W2        4503            0.0000000000
     13509      4503  TIP3      H2            -13.3388405720       10.9595575841       -7.6429063352  W2        4503            0.0000000000
     13510      4504  TIP3      OH2           -15.0684005720        6.6714875841       -7.1869063352  W2        4504            0.0000000000
     13511      4504  TIP3      H1            -14.5031505720        6.7929075841       -7.9497863352  W2        4504            0.0000000000
     13512      4504  TIP3      H2            -14.7495105720        7.3089875841       -6.5480563352  W2        4504            0.0000000000
     13513      4505  TIP3      OH2            -8.7591805720       12.1746775841       -6.4528563352  W2        4505            0.0000000000
     13514      4505  TIP3      H1             -8.9995205720       12.8369875841       -5.8049363352  W2        4505            0.0000000000
     13515      4505  TIP3      H2             -8.9573605720       11.3401975841       -6.0278963352  W2        4505            0.0000000000
     13516      4506  TIP3      OH2           -14.1883305720       11.0707575841       -2.4697163352  W2        4506            0.0000000000
     13517      4506  TIP3      H1            -14.4995805720       11.8530775841       -2.0143963352  W2        4506            0.0000000000
     13518      4506  TIP3      H2            -14.8383105720       10.9176675841       -3.1555163352  W2        4506            0.0000000000
     13519      4507  TIP3      OH2            -8.2093705720        6.4345975841      -15.0177863352  W2        4507            0.0000000000
     13520      4507  TIP3      H1             -7.6298205720        6.5846275841      -14.2708963352  W2        4507            0.0000000000
     13521      4507  TIP3      H2             -7.7953705720        6.9053375841      -15.7411463352  W2        4507            0.0000000000
     13522      4508  TIP3      OH2           -17.2683405720        7.2688675841       -3.2411463352  W2        4508            0.0000000000
     13523      4508  TIP3      H1            -17.1980205720        7.9195475841       -2.5426463352  W2        4508            0.0000000000
     13524      4508  TIP3      H2            -18.1591205720        7.3716175841       -3.5760563352  W2        4508            0.0000000000
     13525      4509  TIP3      OH2           -10.4828805720       13.1714475841      -11.5824763352  W2        4509            0.0000000000
     13526      4509  TIP3      H1            -10.0091205720       13.4670775841      -10.8050563352  W2        4509            0.0000000000
     13527      4509  TIP3      H2            -11.0459505720       13.9096075841      -11.8155163352  W2        4509            0.0000000000
     13528      4510  TIP3      OH2           -15.9487405720       13.1422575841       -1.7063363352  W2        4510            0.0000000000
     13529      4510  TIP3      H1            -15.9412105720       13.0062275841       -2.6537863352  W2        4510            0.0000000000
     13530      4510  TIP3      H2            -16.8647005720       13.0250675841       -1.4543363352  W2        4510            0.0000000000
     13531      4511  TIP3      OH2            -4.5105305720       -1.8153624159      -15.2048163352  W2        4511            0.0000000000
     13532      4511  TIP3      H1             -5.4104605720       -1.6764624159      -14.9097563352  W2        4511            0.0000000000
     13533      4511  TIP3      H2             -4.2586905720       -0.9839024159      -15.6066463352  W2        4511            0.0000000000
     13534      4512  TIP3      OH2           -16.4446805720        6.9723575841      -13.2311263352  W2        4512            0.0000000000
     13535      4512  TIP3      H1            -16.7365505720        7.7405275841      -13.7219963352  W2        4512            0.0000000000
     13536      4512  TIP3      H2            -17.1191605720        6.3129775841      -13.3939863352  W2        4512            0.0000000000
     13537      4513  TIP3      OH2            -3.3213905720       12.5508775841      -16.8284263352  W2        4513            0.0000000000
     13538      4513  TIP3      H1             -3.2480405720       13.4898975841      -16.6578963352  W2        4513            0.0000000000
     13539      4513  TIP3      H2             -2.4158805720       12.2457375841      -16.8846963352  W2        4513            0.0000000000
     13540      4514  TIP3      OH2           -20.3516705720        9.3352775841       -4.4161463352  W2        4514            0.0000000000
     13541      4514  TIP3      H1            -20.8528305720        9.3072175841       -5.2311763352  W2        4514            0.0000000000
     13542      4514  TIP3      H2            -20.3463005720        8.4295975841       -4.1064163352  W2        4514            0.0000000000
     13543      4515  TIP3      OH2           -20.6014005720       12.1156575841       -7.5321263352  W2        4515            0.0000000000
     13544      4515  TIP3      H1            -19.6553405720       11.9713575841       -7.5511763352  W2        4515            0.0000000000
     13545      4515  TIP3      H2            -20.7137705720       12.8999375841       -6.9950063352  W2        4515            0.0000000000
     13546      4516  TIP3      OH2            -2.4035505720       12.7816275841       -1.8497563352  W2        4516            0.0000000000
     13547      4516  TIP3      H1             -2.4528705720       11.8264375841       -1.8869963352  W2        4516            0.0000000000
     13548      4516  TIP3      H2             -3.2303205720       13.0491575841       -1.4483763352  W2        4516            0.0000000000
     13549      4517  TIP3      OH2           -11.4251505720       12.3555475841       -2.9736163352  W2        4517            0.0000000000
     13550      4517  TIP3      H1            -11.3376905720       13.1820075841       -2.4987063352  W2        4517            0.0000000000
     13551      4517  TIP3      H2            -12.2886405720       12.0259275841       -2.7246863352  W2        4517            0.0000000000
     13552      4518  TIP3      OH2           -11.0105705720       16.1279175841      -13.1675563352  W2        4518            0.0000000000
     13553      4518  TIP3      H1            -11.0859705720       16.0066375841      -14.1140363352  W2        4518            0.0000000000
     13554      4518  TIP3      H2            -10.9777005720       17.0771875841      -13.0490963352  W2        4518            0.0000000000
     13555      4519  TIP3      OH2           -17.3571905720       14.9166175841      -11.3866563352  W2        4519            0.0000000000
     13556      4519  TIP3      H1            -17.2051505720       14.5686575841      -10.5080063352  W2        4519            0.0000000000
     13557      4519  TIP3      H2            -18.2081505720       14.5603475841      -11.6419363352  W2        4519            0.0000000000
     13558      4520  TIP3      OH2            -7.9089705720       15.2819375841      -16.1653163352  W2        4520            0.0000000000
     13559      4520  TIP3      H1             -7.5341305720       14.5375475841      -16.6360563352  W2        4520            0.0000000000
     13560      4520  TIP3      H2             -7.9046005720       15.0119975841      -15.2469863352  W2        4520            0.0000000000
     13561      4521  TIP3      OH2            -8.2401605720       15.2076475841      -13.4160963352  W2        4521            0.0000000000
     13562      4521  TIP3      H1             -9.1751805720       15.3078375841      -13.2373963352  W2        4521            0.0000000000
     13563      4521  TIP3      H2             -7.9599705720       14.4982475841      -12.8377763352  W2        4521            0.0000000000
     13564      4522  TIP3      OH2            -5.2515705720        4.2748775841       -1.3695363352  W2        4522            0.0000000000
     13565      4522  TIP3      H1             -5.6588905720        4.7554375841       -2.0902063352  W2        4522            0.0000000000
     13566      4522  TIP3      H2             -5.2110005720        3.3694775841       -1.6774563352  W2        4522            0.0000000000
     13567      4523  TIP3      OH2           -18.1026205720       10.6588175841       -3.3728663352  W2        4523            0.0000000000
     13568      4523  TIP3      H1            -17.8864905720       10.2973775841       -2.5132863352  W2        4523            0.0000000000
     13569      4523  TIP3      H2            -18.9581505720       10.2841975841       -3.5825163352  W2        4523            0.0000000000
     13570      4524  TIP3      OH2           -15.4838205720       -0.8711324159       -7.3774463352  W2        4524            0.0000000000
     13571      4524  TIP3      H1            -16.3454505720       -0.9583124159       -7.7851563352  W2        4524            0.0000000000
     13572      4524  TIP3      H2            -15.5062505720       -0.0151224159       -6.9496863352  W2        4524            0.0000000000
     13573      4525  TIP3      OH2           -10.8210405720       -1.1490924159       -4.0027463352  W2        4525            0.0000000000
     13574      4525  TIP3      H1            -10.4007305720       -1.5643824159       -3.2496863352  W2        4525            0.0000000000
     13575      4525  TIP3      H2            -11.7540805720       -1.3277624159       -3.8855463352  W2        4525            0.0000000000
     13576      4526  TIP3      OH2            -7.4945505720        2.6064275841       -3.1492963352  W2        4526            0.0000000000
     13577      4526  TIP3      H1             -8.0086005720        2.4806475841       -2.3516963352  W2        4526            0.0000000000
     13578      4526  TIP3      H2             -7.6500805720        3.5187375841       -3.3936763352  W2        4526            0.0000000000
     13579      4527  TIP3      OH2            -6.7320605720        7.4674275841      -17.3879963352  W2        4527            0.0000000000
     13580      4527  TIP3      H1             -6.6899805720        7.2448175841      -18.3179963352  W2        4527            0.0000000000
     13581      4527  TIP3      H2             -5.8828505720        7.8661375841      -17.1980063352  W2        4527            0.0000000000
     13582      4528  TIP3      OH2           -11.1593105720        1.3432475841      -16.7176663352  W2        4528            0.0000000000
     13583      4528  TIP3      H1            -11.4128305720        1.3624075841      -15.7948563352  W2        4528            0.0000000000
     13584      4528  TIP3      H2            -11.4161005720        0.4717875841      -17.0190463352  W2        4528            0.0000000000
     13585      4529  TIP3      OH2           -15.3928105720        4.0943175841       -6.2824263352  W2        4529            0.0000000000
     13586      4529  TIP3      H1            -16.0346005720        4.0540475841       -5.5734163352  W2        4529            0.0000000000
     13587      4529  TIP3      H2            -15.3556105720        5.0207875841       -6.5201263352  W2        4529            0.0000000000
     13588      4530  TIP3      OH2           -15.3959005720        4.3153275841      -11.3704263352  W2        4530            0.0000000000
     13589      4530  TIP3      H1            -16.2886105720        3.9749375841      -11.4290463352  W2        4530            0.0000000000
     13590      4530  TIP3      H2            -14.9452405720        3.9384175841      -12.1261063352  W2        4530            0.0000000000
     13591      4531  TIP3      OH2            -9.8603505720        4.7313575841      -12.5533463352  W2        4531            0.0000000000
     13592      4531  TIP3      H1            -10.2693205720        5.5462175841      -12.8448663352  W2        4531            0.0000000000
     13593      4531  TIP3      H2             -9.1397305720        4.5913675841      -13.1676363352  W2        4531            0.0000000000
     13594      4532  TIP3      OH2           -10.7581905720        4.9069975841       -1.0652763352  W2        4532            0.0000000000
     13595      4532  TIP3      H1            -11.3208105720        4.2021575841       -0.7444963352  W2        4532            0.0000000000
     13596      4532  TIP3      H2             -9.9318505720        4.7861875841       -0.5975163352  W2        4532            0.0000000000
     13597      4533  TIP3      OH2            -8.8555805720        4.1773975841       -9.7393763352  W2        4533            0.0000000000
     13598      4533  TIP3      H1             -9.0511305720        4.7830775841      -10.4543163352  W2        4533            0.0000000000
     13599      4533  TIP3      H2             -8.6743205720        3.3439175841      -10.1737463352  W2        4533            0.0000000000
     13600      4534  TIP3      OH2           -17.6427605720        4.4146675841       -4.4152263352  W2        4534            0.0000000000
     13601      4534  TIP3      H1            -17.6808205720        4.8148275841       -3.5465163352  W2        4534            0.0000000000
     13602      4534  TIP3      H2            -18.1336505720        3.5979075841       -4.3249363352  W2        4534            0.0000000000
     13603      4535  TIP3      OH2           -14.2770205720        1.7888975841      -17.6166263352  W2        4535            0.0000000000
     13604      4535  TIP3      H1            -14.7079505720        1.3439075841      -16.8868863352  W2        4535            0.0000000000
     13605      4535  TIP3      H2            -14.9951505720        2.1605275841      -18.1288763352  W2        4535            0.0000000000
     13606      4536  TIP3      OH2           -21.0346805720        1.5308475841      -10.5647563352  W2        4536            0.0000000000
     13607      4536  TIP3      H1            -20.4039105720        1.5020575841       -9.8453663352  W2        4536            0.0000000000
     13608      4536  TIP3      H2            -20.5852505720        1.1057175841      -11.2951663352  W2        4536            0.0000000000
     13609      4537  TIP3      OH2           -19.7604705720        2.2770475841      -15.1407163352  W2        4537            0.0000000000
     13610      4537  TIP3      H1            -19.2863005720        2.8680375841      -15.7256263352  W2        4537            0.0000000000
     13611      4537  TIP3      H2            -20.4778305720        2.8073375841      -14.7937063352  W2        4537            0.0000000000
     13612      4538  TIP3      OH2            -9.5916605720        5.8155275841       -5.0681363352  W2        4538            0.0000000000
     13613      4538  TIP3      H1             -9.2681805720        5.1844975841       -5.7110863352  W2        4538            0.0000000000
     13614      4538  TIP3      H2            -10.0317305720        5.2807475841       -4.4073963352  W2        4538            0.0000000000
     13615      4539  TIP3      OH2           -12.8143705720        1.7430775841      -10.2840163352  W2        4539            0.0000000000
     13616      4539  TIP3      H1            -13.7252605720        1.7997575841       -9.9954163352  W2        4539            0.0000000000
     13617      4539  TIP3      H2            -12.3090805720        1.6826275841       -9.4732963352  W2        4539            0.0000000000
     13618      4540  TIP3      OH2           -17.9860305720        3.3717075841      -11.4572563352  W2        4540            0.0000000000
     13619      4540  TIP3      H1            -18.8752305720        3.4712575841      -11.7972963352  W2        4540            0.0000000000
     13620      4540  TIP3      H2            -17.6895405720        2.5300075841      -11.8034663352  W2        4540            0.0000000000
     13621      4541  TIP3      OH2           -14.3328505720        3.3719675841      -13.8007963352  W2        4541            0.0000000000
     13622      4541  TIP3      H1            -13.4013005720        3.5009675841      -13.6224863352  W2        4541            0.0000000000
     13623      4541  TIP3      H2            -14.5478205720        4.0413975841      -14.4503263352  W2        4541            0.0000000000
     13624      4542  TIP3      OH2            -8.4091805720        0.9777075841       -7.0198363352  W2        4542            0.0000000000
     13625      4542  TIP3      H1             -9.0860205720        1.1090175841       -6.3558663352  W2        4542            0.0000000000
     13626      4542  TIP3      H2             -8.8946905720        0.8226575841       -7.8300663352  W2        4542            0.0000000000
     13627      4543  TIP3      OH2           -15.6588305720        4.5661875841      -16.2341863352  W2        4543            0.0000000000
     13628      4543  TIP3      H1            -16.2013205720        4.1865675841      -16.9254263352  W2        4543            0.0000000000
     13629      4543  TIP3      H2            -14.8253405720        4.7606575841      -16.6627763352  W2        4543            0.0000000000
     13630      4544  TIP3      OH2            -5.1216705720       16.6492475841       -0.7430763352  W2        4544            0.0000000000
     13631      4544  TIP3      H1             -4.9218005720       17.0734375841       -1.5775463352  W2        4544            0.0000000000
     13632      4544  TIP3      H2             -4.4663005720       16.9930675841       -0.1360363352  W2        4544            0.0000000000
     13633      4545  TIP3      OH2           -17.5236905720        9.1233775841       -1.1350263352  W2        4545            0.0000000000
     13634      4545  TIP3      H1            -16.7914505720        9.3779675841       -0.5735763352  W2        4545            0.0000000000
     13635      4545  TIP3      H2            -18.3038205720        9.3279175841       -0.6194863352  W2        4545            0.0000000000
     13636      4546  TIP3      OH2           -11.4944005720        4.5303775841       -8.3970563352  W2        4546            0.0000000000
     13637      4546  TIP3      H1            -10.9300605720        3.9840375841       -8.9440963352  W2        4546            0.0000000000
     13638      4546  TIP3      H2            -11.6420605720        4.0085675841       -7.6082963352  W2        4546            0.0000000000
     13639      4547  TIP3      OH2           -16.4924305720        0.6669875841      -11.9785763352  W2        4547            0.0000000000
     13640      4547  TIP3      H1            -16.8094805720       -0.2354824159      -12.0140363352  W2        4547            0.0000000000
     13641      4547  TIP3      H2            -15.7110205720        0.6687275841      -12.5314163352  W2        4547            0.0000000000
     13642      4548  TIP3      OH2           -12.8678105720        2.9189875841       -5.9830163352  W2        4548            0.0000000000
     13643      4548  TIP3      H1            -13.7032805720        3.3729375841       -5.8727763352  W2        4548            0.0000000000
     13644      4548  TIP3      H2            -12.3437505720        3.1948375841       -5.2310263352  W2        4548            0.0000000000
     13645      4549  TIP3      OH2           -12.3235505720        9.1317575841      -14.2983763352  W2        4549            0.0000000000
     13646      4549  TIP3      H1            -13.0684505720        8.6242875841      -14.6205863352  W2        4549            0.0000000000
     13647      4549  TIP3      H2            -12.4578305720        9.1805575841      -13.3518963352  W2        4549            0.0000000000
     13648      4550  TIP3      OH2            -5.1736605720        8.2645775841       -5.5116163352  W2        4550            0.0000000000
     13649      4550  TIP3      H1             -4.5317805720        8.7212075841       -6.0553963352  W2        4550            0.0000000000
     13650      4550  TIP3      H2             -6.0039705720        8.3778175841       -5.9742063352  W2        4550            0.0000000000
     13651      4551  TIP3      OH2            -8.4258705720        1.9457475841      -16.0991163352  W2        4551            0.0000000000
     13652      4551  TIP3      H1             -9.3644505720        2.0573075841      -16.2502363352  W2        4551            0.0000000000
     13653      4551  TIP3      H2             -8.1286605720        2.8024375841      -15.7925463352  W2        4551            0.0000000000
     13654      4552  TIP3      OH2           -10.8043405720        9.3160875841       -3.0614663352  W2        4552            0.0000000000
     13655      4552  TIP3      H1            -11.1497305720        8.9343275841       -2.2545063352  W2        4552            0.0000000000
     13656      4552  TIP3      H2            -11.0043305720       10.2494475841       -2.9901763352  W2        4552            0.0000000000
     13657      4553  TIP3      OH2            -7.7075205720        3.8130175841      -14.4383763352  W2        4553            0.0000000000
     13658      4553  TIP3      H1             -6.8156205720        3.6755175841      -14.1192563352  W2        4553            0.0000000000
     13659      4553  TIP3      H2             -7.6511605720        4.6036275841      -14.9750263352  W2        4553            0.0000000000
     13660      4554  TIP3      OH2           -17.1987205720        8.4267575841       -8.5285863352  W2        4554            0.0000000000
     13661      4554  TIP3      H1            -16.4540005720        8.4243275841       -9.1299363352  W2        4554            0.0000000000
     13662      4554  TIP3      H2            -17.1210605720        7.6031375841       -8.0470763352  W2        4554            0.0000000000
     13663      4555  TIP3      OH2           -10.1981405720       10.5901875841      -15.2729163352  W2        4555            0.0000000000
     13664      4555  TIP3      H1            -10.4933005720       11.4169775841      -14.8914363352  W2        4555            0.0000000000
     13665      4555  TIP3      H2            -10.9011405720        9.9708775841      -15.0767763352  W2        4555            0.0000000000
     13666      4556  TIP3      OH2           -20.1907505720        6.8874475841       -3.2137363352  W2        4556            0.0000000000
     13667      4556  TIP3      H1            -19.9678905720        6.4694075841       -2.3819863352  W2        4556            0.0000000000
     13668      4556  TIP3      H2            -20.7927405720        6.2749475841       -3.6364563352  W2        4556            0.0000000000
     13669      4557  TIP3      OH2           -13.1742605720        6.4044375841       -1.0007663352  W2        4557            0.0000000000
     13670      4557  TIP3      H1            -13.4701805720        6.2387375841       -1.8958563352  W2        4557            0.0000000000
     13671      4557  TIP3      H2            -12.2427405720        6.1844675841       -1.0113763352  W2        4557            0.0000000000
     13672      4558  TIP3      OH2            -8.5539805720       11.7776375841       -3.1109663352  W2        4558            0.0000000000
     13673      4558  TIP3      H1             -9.4545505720       11.9608975841       -3.3785763352  W2        4558            0.0000000000
     13674      4558  TIP3      H2             -8.5198705720       12.0365675841       -2.1900863352  W2        4558            0.0000000000
     13675      4559  TIP3      OH2            -2.8226505720        4.0224275841      -14.7437063352  W2        4559            0.0000000000
     13676      4559  TIP3      H1             -3.3770205720        3.6262275841      -15.4159563352  W2        4559            0.0000000000
     13677      4559  TIP3      H2             -2.7222905720        4.9329475841      -15.0213763352  W2        4559            0.0000000000
     13678      4560  TIP3      OH2            -2.8594505720        9.8225975841       -1.9065563352  W2        4560            0.0000000000
     13679      4560  TIP3      H1             -3.7106005720       10.0609775841       -2.2739163352  W2        4560            0.0000000000
     13680      4560  TIP3      H2             -2.2691105720        9.8059175841       -2.6598463352  W2        4560            0.0000000000
     13681      4561  TIP3      OH2            -4.5274805720       12.8084675841      -14.2784963352  W2        4561            0.0000000000
     13682      4561  TIP3      H1             -4.9003705720       11.9828475841      -13.9694363352  W2        4561            0.0000000000
     13683      4561  TIP3      H2             -4.2501305720       12.6254075841      -15.1761563352  W2        4561            0.0000000000
     13684      4562  TIP3      OH2            -7.3670905720        7.6164175841       -7.2573063352  W2        4562            0.0000000000
     13685      4562  TIP3      H1             -8.2954005720        7.3846075841       -7.2843763352  W2        4562            0.0000000000
     13686      4562  TIP3      H2             -6.9159805720        6.8393975841       -7.5874263352  W2        4562            0.0000000000
     13687      4563  TIP3      OH2           -14.8237805720       11.9445775841      -11.1244363352  W2        4563            0.0000000000
     13688      4563  TIP3      H1            -14.2965605720       12.7180175841      -11.3245563352  W2        4563            0.0000000000
     13689      4563  TIP3      H2            -15.7039305720       12.1694975841      -11.4260363352  W2        4563            0.0000000000
     13690      4564  TIP3      OH2           -19.0690105720        6.8069875841      -16.5371963352  W2        4564            0.0000000000
     13691      4564  TIP3      H1            -18.4530205720        7.4337075841      -16.1577163352  W2        4564            0.0000000000
     13692      4564  TIP3      H2            -19.9307505720        7.1229675841      -16.2655463352  W2        4564            0.0000000000
     13693      4565  TIP3      OH2           -13.3965505720        9.6075675841      -11.5480063352  W2        4565            0.0000000000
     13694      4565  TIP3      H1            -13.6375505720       10.5330075841      -11.5064763352  W2        4565            0.0000000000
     13695      4565  TIP3      H2            -14.1371905720        9.1486975841      -11.1516163352  W2        4565            0.0000000000
     13696      4566  TIP3      OH2           -12.8818905720       13.7569275841       -5.2328963352  W2        4566            0.0000000000
     13697      4566  TIP3      H1            -12.5194205720       14.6114875841       -5.4664563352  W2        4566            0.0000000000
     13698      4566  TIP3      H2            -12.3503705720       13.4650875841       -4.4922663352  W2        4566            0.0000000000
     13699      4567  TIP3      OH2           -14.7134705720       14.6293275841      -12.0027863352  W2        4567            0.0000000000
     13700      4567  TIP3      H1            -15.6634205720       14.7350675841      -11.9514563352  W2        4567            0.0000000000
     13701      4567  TIP3      H2            -14.3616605720       15.4500675841      -11.6580363352  W2        4567            0.0000000000
     13702      4568  TIP3      OH2            -9.3378105720        9.8559975841       -5.5323363352  W2        4568            0.0000000000
     13703      4568  TIP3      H1             -9.7636805720        9.6281675841       -4.7059363352  W2        4568            0.0000000000
     13704      4568  TIP3      H2             -8.7572305720        9.1171775841       -5.7148063352  W2        4568            0.0000000000
     13705      4569  TIP3      OH2            -7.1349205720       10.7850475841      -16.4584363352  W2        4569            0.0000000000
     13706      4569  TIP3      H1             -6.7816105720       10.4050275841      -15.6540863352  W2        4569            0.0000000000
     13707      4569  TIP3      H2             -8.0835705720       10.6915275841      -16.3715063352  W2        4569            0.0000000000
     13708      4570  TIP3      OH2            -6.6793905720       14.4079475841       -3.0628563352  W2        4570            0.0000000000
     13709      4570  TIP3      H1             -7.2810705720       13.8522375841       -3.5582263352  W2        4570            0.0000000000
     13710      4570  TIP3      H2             -6.3980205720       15.0749275841       -3.6891163352  W2        4570            0.0000000000
     13711      4571  TIP3      OH2            -2.6314805720       15.2642975841      -16.2574163352  W2        4571            0.0000000000
     13712      4571  TIP3      H1             -1.8876905720       15.8503475841      -16.3972563352  W2        4571            0.0000000000
     13713      4571  TIP3      H2             -3.3256705720       15.8328775841      -15.9241763352  W2        4571            0.0000000000
     13714      4572  TIP3      OH2           -18.5568005720        1.6407175841       -3.6555963352  W2        4572            0.0000000000
     13715      4572  TIP3      H1            -19.4495705720        1.9792575841       -3.7231963352  W2        4572            0.0000000000
     13716      4572  TIP3      H2            -18.6555205720        0.7853275841       -3.2375163352  W2        4572            0.0000000000
     13717      4573  TIP3      OH2            -6.2689905720        9.4572475841      -14.2316463352  W2        4573            0.0000000000
     13718      4573  TIP3      H1             -6.5462305720        8.7291775841      -13.6755363352  W2        4573            0.0000000000
     13719      4573  TIP3      H2             -5.3416905720        9.5764475841      -14.0263863352  W2        4573            0.0000000000
     13720      4574  TIP3      OH2           -18.9056005720       13.4451575841       -5.2206563352  W2        4574            0.0000000000
     13721      4574  TIP3      H1            -18.6885705720       12.5133975841       -5.2516863352  W2        4574            0.0000000000
     13722      4574  TIP3      H2            -18.6592505720       13.7196575841       -4.3373763352  W2        4574            0.0000000000
     13723      4575  TIP3      OH2           -13.0441405720       11.8966575841      -18.0114363352  W2        4575            0.0000000000
     13724      4575  TIP3      H1            -12.8051605720       11.1484675841      -18.5585463352  W2        4575            0.0000000000
     13725      4575  TIP3      H2            -13.3130105720       11.5088275841      -17.1786563352  W2        4575            0.0000000000
     13726      4576  TIP3      OH2           -14.1070805720       11.4670375841      -15.5551763352  W2        4576            0.0000000000
     13727      4576  TIP3      H1            -13.9602805720       10.9470175841      -14.7650863352  W2        4576            0.0000000000
     13728      4576  TIP3      H2            -14.1099105720       12.3737975841      -15.2485863352  W2        4576            0.0000000000
     13729      4577  TIP3      OH2           -17.6539705720        8.7193675841      -15.0446363352  W2        4577            0.0000000000
     13730      4577  TIP3      H1            -18.3400405720        9.0716175841      -14.4776663352  W2        4577            0.0000000000
     13731      4577  TIP3      H2            -17.1311805720        9.4823275841      -15.2912063352  W2        4577            0.0000000000
     13732      4578  TIP3      OH2            -9.8224605720        1.3817475841       -4.7657363352  W2        4578            0.0000000000
     13733      4578  TIP3      H1             -9.1236705720        1.4556175841       -4.1157663352  W2        4578            0.0000000000
     13734      4578  TIP3      H2            -10.2033205720        0.5172475841       -4.6114463352  W2        4578            0.0000000000
     13735      4579  TIP3      OH2            -9.0379705720        1.0339175841      -13.6685063352  W2        4579            0.0000000000
     13736      4579  TIP3      H1             -8.8181405720        1.5054575841      -14.4719663352  W2        4579            0.0000000000
     13737      4579  TIP3      H2             -8.4795705720        1.4281775841      -12.9984463352  W2        4579            0.0000000000
     13738      4580  TIP3      OH2           -11.3693605720       13.1643975841      -14.8057563352  W2        4580            0.0000000000
     13739      4580  TIP3      H1            -12.1857505720       13.6613675841      -14.7533263352  W2        4580            0.0000000000
     13740      4580  TIP3      H2            -10.8397305720       13.6397475841      -15.4458763352  W2        4580            0.0000000000
     13741      4581  TIP3      OH2           -11.8379805720        2.7617975841      -12.8336663352  W2        4581            0.0000000000
     13742      4581  TIP3      H1            -11.0257205720        3.2661175841      -12.7874963352  W2        4581            0.0000000000
     13743      4581  TIP3      H2            -12.0826805720        2.6167675841      -11.9197063352  W2        4581            0.0000000000
     13744      4582  TIP3      OH2           -11.3023405720        3.7480675841       -3.6490063352  W2        4582            0.0000000000
     13745      4582  TIP3      H1            -11.1833105720        4.3216075841       -2.8919663352  W2        4582            0.0000000000
     13746      4582  TIP3      H2            -10.6468805720        3.0600075841       -3.5342263352  W2        4582            0.0000000000
     13747      4583  TIP3      OH2           -10.9543105720       -0.1569024159      -11.8955563352  W2        4583            0.0000000000
     13748      4583  TIP3      H1            -11.3009605720        0.4601575841      -11.2511263352  W2        4583            0.0000000000
     13749      4583  TIP3      H2            -10.2956205720        0.3436675841      -12.3770063352  W2        4583            0.0000000000
     13750      4584  TIP3      OH2           -14.0310505720       14.2081175841      -14.8240663352  W2        4584            0.0000000000
     13751      4584  TIP3      H1            -13.8701805720       15.0078675841      -15.3248063352  W2        4584            0.0000000000
     13752      4584  TIP3      H2            -14.2282705720       14.5147175841      -13.9390063352  W2        4584            0.0000000000
     13753      4585  TIP3      OH2           -15.2966105720        0.9060375841      -15.2083063352  W2        4585            0.0000000000
     13754      4585  TIP3      H1            -15.3801305720        1.7943475841      -14.8616663352  W2        4585            0.0000000000
     13755      4585  TIP3      H2            -14.4065805720        0.6407075841      -14.9766263352  W2        4585            0.0000000000
     13756      4586  TIP3      OH2            -5.0977605720        1.6550975841       -2.8140363352  W2        4586            0.0000000000
     13757      4586  TIP3      H1             -6.0141805720        1.9172675841       -2.9016663352  W2        4586            0.0000000000
     13758      4586  TIP3      H2             -4.7622605720        1.6519975841       -3.7105063352  W2        4586            0.0000000000
     13759      4587  TIP3      OH2            -6.4956605720        5.4051975841       -8.7183063352  W2        4587            0.0000000000
     13760      4587  TIP3      H1             -7.2932205720        4.9902175841       -9.0468063352  W2        4587            0.0000000000
     13761      4587  TIP3      H2             -6.0505505720        4.7145675841       -8.2272563352  W2        4587            0.0000000000
     13762      4588  TIP3      OH2           -17.0380805720       11.3332575841      -16.1478563352  W2        4588            0.0000000000
     13763      4588  TIP3      H1            -16.4459305720       12.0327375841      -15.8716163352  W2        4588            0.0000000000
     13764      4588  TIP3      H2            -16.5787805720       10.9002075841      -16.8673963352  W2        4588            0.0000000000
     13765      4589  TIP3      OH2           -18.7221605720        3.9975575841      -17.0319163352  W2        4589            0.0000000000
     13766      4589  TIP3      H1            -18.7669005720        4.9368675841      -16.8532163352  W2        4589            0.0000000000
     13767      4589  TIP3      H2            -19.6098405720        3.7620475841      -17.3017063352  W2        4589            0.0000000000
     13768      4590  TIP3      OH2            -5.4092005720       14.6614475841       -7.0959563352  W2        4590            0.0000000000
     13769      4590  TIP3      H1             -5.5647705720       15.3398875841       -7.7530263352  W2        4590            0.0000000000
     13770      4590  TIP3      H2             -4.4765605720       14.7333775841       -6.8928963352  W2        4590            0.0000000000
     13771      4591  TIP3      OH2           -17.9139605720       -1.2207824159       -8.3588163352  W2        4591            0.0000000000
     13772      4591  TIP3      H1            -18.1429805720       -1.1615324159       -9.2863163352  W2        4591            0.0000000000
     13773      4591  TIP3      H2            -18.3566205720       -2.0122324159       -8.0524063352  W2        4591            0.0000000000
     13774      4592  TIP3      OH2           -18.9836305720       12.7199275841      -12.1982363352  W2        4592            0.0000000000
     13775      4592  TIP3      H1            -19.8157705720       13.1921975841      -12.1710963352  W2        4592            0.0000000000
     13776      4592  TIP3      H2            -18.4378005720       13.2296875841      -12.7969263352  W2        4592            0.0000000000
     13777      4593  TIP3      OH2           -19.6952605720       15.3322975841       -0.8684363352  W2        4593            0.0000000000
     13778      4593  TIP3      H1            -19.1550405720       15.1156975841       -0.1085163352  W2        4593            0.0000000000
     13779      4593  TIP3      H2            -20.1764605720       14.5268975841       -1.0581863352  W2        4593            0.0000000000
     13780      4594  TIP3      OH2           -15.0979205720       14.2517375841        0.7519836648  W2        4594            0.0000000000
     13781      4594  TIP3      H1            -14.3302005720       13.7928175841        1.0929036648  W2        4594            0.0000000000
     13782      4594  TIP3      H2            -15.1193005720       14.0257175841       -0.1778963352  W2        4594            0.0000000000
     13783      4595  TIP3      OH2           -11.0059605720       13.7597975841      -17.8728363352  W2        4595            0.0000000000
     13784      4595  TIP3      H1            -11.6498605720       13.1286575841      -17.5514663352  W2        4595            0.0000000000
     13785      4595  TIP3      H2            -10.2441305720       13.2285975841      -18.1044863352  W2        4595            0.0000000000
     13786      4596  TIP3      OH2            -8.5210505720       12.6318475841       -0.5188663352  W2        4596            0.0000000000
     13787      4596  TIP3      H1             -8.8721005720       11.7751475841       -0.2758263352  W2        4596            0.0000000000
     13788      4596  TIP3      H2             -7.7947305720       12.7745175841        0.0880336648  W2        4596            0.0000000000
     13789      4597  TIP3      OH2            -6.4016705720       13.5767875841      -17.6390363352  W2        4597            0.0000000000
     13790      4597  TIP3      H1             -6.1186305720       12.7823075841      -17.1863463352  W2        4597            0.0000000000
     13791      4597  TIP3      H2             -5.6618805720       13.8098875841      -18.1999263352  W2        4597            0.0000000000
     13792      4598  TIP3      OH2           -19.7883105720        9.1427075841        0.0859936648  W2        4598            0.0000000000
     13793      4598  TIP3      H1            -19.6442605720        8.2407775841       -0.2003363352  W2        4598            0.0000000000
     13794      4598  TIP3      H2            -20.5605705720        9.4289175841       -0.4017763352  W2        4598            0.0000000000
     13795      4599  TIP3      OH2           -15.4469405720        9.4862775841      -17.7815463352  W2        4599            0.0000000000
     13796      4599  TIP3      H1            -15.3825305720        8.6922375841      -17.2509063352  W2        4599            0.0000000000
     13797      4599  TIP3      H2            -14.7940205720        9.3675575841      -18.4713463352  W2        4599            0.0000000000
     13798      4600  TIP3      OH2           -13.1327005720        9.1125175841       -0.4813663352  W2        4600            0.0000000000
     13799      4600  TIP3      H1            -13.4613205720        9.3833275841       -1.3386263352  W2        4600            0.0000000000
     13800      4600  TIP3      H2            -12.9808805720        8.1714975841       -0.5688663352  W2        4600            0.0000000000
     13801      4601  TIP3      OH2           -10.0946005720       10.5334475841      -18.0457463352  W2        4601            0.0000000000
     13802      4601  TIP3      H1            -10.3631905720       10.7136575841      -17.1448563352  W2        4601            0.0000000000
     13803      4601  TIP3      H2            -10.3010405720        9.6080675841      -18.1771663352  W2        4601            0.0000000000
     13804      4602  TIP3      OH2            -7.3981805720        9.0282475841       -3.0981363352  W2        4602            0.0000000000
     13805      4602  TIP3      H1             -6.6527005720        9.6166175841       -3.2177363352  W2        4602            0.0000000000
     13806      4602  TIP3      H2             -8.1555005720        9.6102175841       -3.0348263352  W2        4602            0.0000000000
     13807      4603  TIP3      OH2           -18.9556605720        6.3430375841       -0.4940763352  W2        4603            0.0000000000
     13808      4603  TIP3      H1            -18.5475405720        5.4856975841       -0.6150163352  W2        4603            0.0000000000
     13809      4603  TIP3      H2            -19.2159005720        6.3571675841        0.4269536648  W2        4603            0.0000000000
     13810      4604  TIP3      OH2           -14.2975605720        7.4588975841      -15.4757463352  W2        4604            0.0000000000
     13811      4604  TIP3      H1            -14.7573605720        6.9747275841      -14.7898963352  W2        4604            0.0000000000
     13812      4604  TIP3      H2            -14.0426905720        6.7904375841      -16.1116963352  W2        4604            0.0000000000
     13813      4605  TIP3      OH2           -15.0086305720        5.3516075841       -3.1197863352  W2        4605            0.0000000000
     13814      4605  TIP3      H1            -15.6270205720        6.0262675841       -2.8393163352  W2        4605            0.0000000000
     13815      4605  TIP3      H2            -14.6645105720        5.6729975841       -3.9531663352  W2        4605            0.0000000000
     13816      4606  TIP3      OH2           -13.2265205720        5.7020775841      -17.2134263352  W2        4606            0.0000000000
     13817      4606  TIP3      H1            -13.4070205720        5.5471975841      -18.1405963352  W2        4606            0.0000000000
     13818      4606  TIP3      H2            -12.2764705720        5.8099475841      -17.1686363352  W2        4606            0.0000000000
     13819      4607  TIP3      OH2            -9.9888105720        7.8231375841        0.1576936648  W2        4607            0.0000000000
     13820      4607  TIP3      H1             -9.0356905720        7.9070475841        0.1302936648  W2        4607            0.0000000000
     13821      4607  TIP3      H2            -10.1493505720        7.1113175841        0.7771836648  W2        4607            0.0000000000
     13822      4608  TIP3      OH2            -3.8366905720        8.0564975841      -17.7676163352  W2        4608            0.0000000000
     13823      4608  TIP3      H1             -4.1102105720        7.6320475841      -18.5807863352  W2        4608            0.0000000000
     13824      4608  TIP3      H2             -3.7972805720        8.9879475841      -17.9845763352  W2        4608            0.0000000000
     13825      4609  TIP3      OH2           -14.6692605720        2.7066875841       -2.0374763352  W2        4609            0.0000000000
     13826      4609  TIP3      H1            -14.5191705720        1.9778175841       -2.6395063352  W2        4609            0.0000000000
     13827      4609  TIP3      H2            -14.6670205720        3.4838575841       -2.5962563352  W2        4609            0.0000000000
     13828      4610  TIP3      OH2           -14.2566905720        1.0762675841       -4.5447363352  W2        4610            0.0000000000
     13829      4610  TIP3      H1            -13.7209405720        1.5279375841       -5.1968063352  W2        4610            0.0000000000
     13830      4610  TIP3      H2            -15.1087305720        0.9682475841       -4.9673263352  W2        4610            0.0000000000
     13831      4611  TIP3      OH2           -12.6748505720        6.5158875841       -4.3052163352  W2        4611            0.0000000000
     13832      4611  TIP3      H1            -11.9243705720        6.3596375841       -4.8784363352  W2        4611            0.0000000000
     13833      4611  TIP3      H2            -13.0140205720        7.3675475841       -4.5806663352  W2        4611            0.0000000000
     13834      4612  TIP3      OH2            -8.2592305720        4.3310675841        0.7233136648  W2        4612            0.0000000000
     13835      4612  TIP3      H1             -8.0671005720        3.4000075841        0.6117636648  W2        4612            0.0000000000
     13836      4612  TIP3      H2             -7.4016005720        4.7560175841        0.7128536648  W2        4612            0.0000000000
     13837      4613  TIP3      OH2            -6.9425105720        7.1195875841       -1.1994163352  W2        4613            0.0000000000
     13838      4613  TIP3      H1             -7.2240105720        7.8290475841       -1.7770363352  W2        4613            0.0000000000
     13839      4613  TIP3      H2             -6.0000805720        7.0468875841       -1.3502963352  W2        4613            0.0000000000
     13840      4614  TIP3      OH2           -16.1906305720        3.9050375841       -0.1259163352  W2        4614            0.0000000000
     13841      4614  TIP3      H1            -16.9577305720        3.3725175841       -0.3361563352  W2        4614            0.0000000000
     13842      4614  TIP3      H2            -15.5117305720        3.5950775841       -0.7252863352  W2        4614            0.0000000000
     13843      4615  TIP3      OH2           -13.4511405720       -1.4671624159       -4.1133763352  W2        4615            0.0000000000
     13844      4615  TIP3      H1            -13.5491805720       -0.5208424159       -4.2187563352  W2        4615            0.0000000000
     13845      4615  TIP3      H2            -14.1935205720       -1.8397824159       -4.5890263352  W2        4615            0.0000000000
     13846      4616  TIP3      OH2           -12.1870905720        2.8543775841       -0.5495363352  W2        4616            0.0000000000
     13847      4616  TIP3      H1            -12.4225505720        2.6350475841        0.3519536648  W2        4616            0.0000000000
     13848      4616  TIP3      H2            -12.9704005720        2.6474975841       -1.0592863352  W2        4616            0.0000000000
     13849      4617  TIP3      OH2            -9.4714305720        1.9817275841       -1.4741863352  W2        4617            0.0000000000
     13850      4617  TIP3      H1            -10.4188905720        2.0136975841       -1.3418563352  W2        4617            0.0000000000
     13851      4617  TIP3      H2             -9.1587605720        1.3564375841       -0.8203663352  W2        4617            0.0000000000
     13852      4618  TIP3      OH2            -7.8372805720        0.6158375841        0.5310036648  W2        4618            0.0000000000
     13853      4618  TIP3      H1             -7.9341005720       -0.3364324159        0.5251936648  W2        4618            0.0000000000
     13854      4618  TIP3      H2             -8.1589705720        0.8845175841        1.3915536648  W2        4618            0.0000000000
     13855      4619  TIP3      OH2           -18.0103505720        1.8254175841       -0.4214463352  W2        4619            0.0000000000
     13856      4619  TIP3      H1            -17.7986105720        1.1190275841       -1.0316963352  W2        4619            0.0000000000
     13857      4619  TIP3      H2            -18.1216005720        1.3880175841        0.4226736648  W2        4619            0.0000000000
     13858      4620  TIP3      OH2           -13.2293305720       -2.1734224159       -1.4420963352  W2        4620            0.0000000000
     13859      4620  TIP3      H1            -12.5174905720       -2.8132024159       -1.4561863352  W2        4620            0.0000000000
     13860      4620  TIP3      H2            -13.3302905720       -1.9065924159       -2.3557863352  W2        4620            0.0000000000
     13861      4621  TIP3      OH2           -12.8755805720       -0.4905824159        0.6115336648  W2        4621            0.0000000000
     13862      4621  TIP3      H1            -13.0073605720       -0.9662024159       -0.2086163352  W2        4621            0.0000000000
     13863      4621  TIP3      H2            -13.4748405720        0.2537775841        0.5562436648  W2        4621            0.0000000000
     13864      4622  TIP3      OH2           -13.3293505720       16.3924475841      -16.2120663352  W2        4622            0.0000000000
     13865      4622  TIP3      H1            -12.3962805720       16.5503175841      -16.0682263352  W2        4622            0.0000000000
     13866      4622  TIP3      H2            -13.5934705720       17.0677475841      -16.8369163352  W2        4622            0.0000000000
     13867      4623  TIP3      OH2           -19.7608605720       11.0288275841      -16.7292563352  W2        4623            0.0000000000
     13868      4623  TIP3      H1            -18.8469405720       11.1077175841      -16.4558663352  W2        4623            0.0000000000
     13869      4623  TIP3      H2            -19.7535505720       10.3417875841      -17.3956963352  W2        4623            0.0000000000
     13870      4624  TIP3      OH2           -21.1118005720       16.4216775841      -11.6518663352  W2        4624            0.0000000000
     13871      4624  TIP3      H1            -21.7590905720       15.9598475841      -12.1847463352  W2        4624            0.0000000000
     13872      4624  TIP3      H2            -20.7573405720       15.7500075841      -11.0692463352  W2        4624            0.0000000000
     13873      4625  TIP3      OH2           -20.2418805720       14.5023775841       -9.8472463352  W2        4625            0.0000000000
     13874      4625  TIP3      H1            -20.5762005720       13.6221075841       -9.6752263352  W2        4625            0.0000000000
     13875      4625  TIP3      H2            -20.0196405720       14.8478775841       -8.9826863352  W2        4625            0.0000000000
     13876      4626  TIP3      OH2            -2.6934005720       15.3120175841       -6.8667663352  W2        4626            0.0000000000
     13877      4626  TIP3      H1             -2.7147305720       15.4968575841       -5.9278263352  W2        4626            0.0000000000
     13878      4626  TIP3      H2             -2.0027805720       15.8804175841       -7.2076263352  W2        4626            0.0000000000
     13879      4627  TIP3      OH2            -3.1301105720       14.8791275841       -3.9448563352  W2        4627            0.0000000000
     13880      4627  TIP3      H1             -3.6172405720       14.1435375841       -4.3161163352  W2        4627            0.0000000000
     13881      4627  TIP3      H2             -2.5808405720       14.4855175841       -3.2669163352  W2        4627            0.0000000000
     13882      4628  TIP3      OH2            -4.6793805720       10.6689375841        0.6931736648  W2        4628            0.0000000000
     13883      4628  TIP3      H1             -5.5452705720       10.5639075841        1.0874036648  W2        4628            0.0000000000
     13884      4628  TIP3      H2             -4.3027905720       11.4272675841        1.1396436648  W2        4628            0.0000000000
     13885      4629  TIP3      OH2            -3.3784105720        8.9253075841      -13.7925763352  W2        4629            0.0000000000
     13886      4629  TIP3      H1             -2.5282705720        9.3463975841      -13.6654163352  W2        4629            0.0000000000
     13887      4629  TIP3      H2             -3.3729005720        8.1853175841      -13.1854363352  W2        4629            0.0000000000
     13888      4630  TIP3      OH2            -2.9838505720        6.9790475841      -11.9690063352  W2        4630            0.0000000000
     13889      4630  TIP3      H1             -3.7103905720        6.4993075841      -11.5712463352  W2        4630            0.0000000000
     13890      4630  TIP3      H2             -2.4025205720        7.1845175841      -11.2368463352  W2        4630            0.0000000000
     13891      4631  TIP3      OH2            -3.2247305720        9.7637975841       -7.0212463352  W2        4631            0.0000000000
     13892      4631  TIP3      H1             -2.3913105720        9.3857975841       -7.3018863352  W2        4631            0.0000000000
     13893      4631  TIP3      H2             -3.1127005720       10.7069175841       -7.1403363352  W2        4631            0.0000000000
     13894      4632  TIP3      OH2            -4.7385005720       12.6415475841       -4.7144063352  W2        4632            0.0000000000
     13895      4632  TIP3      H1             -5.3859705720       12.9666975841       -4.0888863352  W2        4632            0.0000000000
     13896      4632  TIP3      H2             -5.2561005720       12.2013175841       -5.3885763352  W2        4632            0.0000000000
     13897      4633  TIP3      OH2            -2.7155405720        6.8798975841      -15.5778763352  W2        4633            0.0000000000
     13898      4633  TIP3      H1             -3.2374305720        7.2363075841      -16.2967863352  W2        4633            0.0000000000
     13899      4633  TIP3      H2             -2.7486205720        7.5546775841      -14.8997863352  W2        4633            0.0000000000
     13900      4634  TIP3      OH2            -4.3666405720        4.1194575841      -17.0271663352  W2        4634            0.0000000000
     13901      4634  TIP3      H1             -4.2702005720        4.7861575841      -17.7071963352  W2        4634            0.0000000000
     13902      4634  TIP3      H2             -4.5066805720        3.3040875841      -17.5086163352  W2        4634            0.0000000000
     13903      4635  TIP3      OH2            -5.1971705720        5.4996975841      -11.4061363352  W2        4635            0.0000000000
     13904      4635  TIP3      H1             -5.3472905720        4.5545575841      -11.4263563352  W2        4635            0.0000000000
     13905      4635  TIP3      H2             -5.5507205720        5.7808375841      -10.5622263352  W2        4635            0.0000000000
     13906      4636  TIP3      OH2           -20.1619305720        7.5779175841       -7.3957563352  W2        4636            0.0000000000
     13907      4636  TIP3      H1            -19.9776405720        7.4960875841       -8.3314663352  W2        4636            0.0000000000
     13908      4636  TIP3      H2            -19.3126405720        7.4536175841       -6.9721163352  W2        4636            0.0000000000
     13909      4637  TIP3      OH2            -4.3408805720        7.4700275841       -1.7673063352  W2        4637            0.0000000000
     13910      4637  TIP3      H1             -3.7581505720        6.7352575841       -1.5755863352  W2        4637            0.0000000000
     13911      4637  TIP3      H2             -3.7769505720        8.2420575841       -1.7207263352  W2        4637            0.0000000000
     13912      4638  TIP3      OH2            -2.8441705720        5.3726075841       -1.0827663352  W2        4638            0.0000000000
     13913      4638  TIP3      H1             -3.7075005720        4.9938175841       -1.2482963352  W2        4638            0.0000000000
     13914      4638  TIP3      H2             -2.2398005720        4.6340875841       -1.1571863352  W2        4638            0.0000000000
     13915      4639  TIP3      OH2            -5.1192605720        1.5274375841      -17.9096163352  W2        4639            0.0000000000
     13916      4639  TIP3      H1             -4.5086805720        1.1561175841      -17.2727963352  W2        4639            0.0000000000
     13917      4639  TIP3      H2             -5.9561105720        1.1061275841      -17.7136163352  W2        4639            0.0000000000
     13918      4640  TIP3      OH2            -5.4866905720        3.0822775841      -12.9436263352  W2        4640            0.0000000000
     13919      4640  TIP3      H1             -5.2069805720        2.1753175841      -12.8194563352  W2        4640            0.0000000000
     13920      4640  TIP3      H2             -4.7275205720        3.5164275841      -13.3327063352  W2        4640            0.0000000000
     13921      4641  TIP3      OH2            -4.8748605720        3.6640175841       -7.5077363352  W2        4641            0.0000000000
     13922      4641  TIP3      H1             -3.9420605720        3.8760075841       -7.5421363352  W2        4641            0.0000000000
     13923      4641  TIP3      H2             -5.1101105720        3.7652275841       -6.5854363352  W2        4641            0.0000000000
     13924      4642  TIP3      OH2            -4.8456705720        4.4005475841       -4.7317963352  W2        4642            0.0000000000
     13925      4642  TIP3      H1             -5.6885405720        4.6685875841       -4.3658163352  W2        4642            0.0000000000
     13926      4642  TIP3      H2             -4.4032405720        5.2227375841       -4.9426863352  W2        4642            0.0000000000
     13927      4643  TIP3      OH2           -20.5644505720        2.8484175841       -1.2548763352  W2        4643            0.0000000000
     13928      4643  TIP3      H1            -19.6449605720        2.7262475841       -1.0185663352  W2        4643            0.0000000000
     13929      4643  TIP3      H2            -21.0140005720        2.0983875841       -0.8655263352  W2        4643            0.0000000000
     13930      4644  TIP3      OH2            -2.5625105720       -1.6194324159        0.6217036648  W2        4644            0.0000000000
     13931      4644  TIP3      H1             -2.2128105720       -2.2730824159        0.0161736648  W2        4644            0.0000000000
     13932      4644  TIP3      H2             -2.4155605720       -0.7820224159        0.1819636648  W2        4644            0.0000000000
     13933      4645  TIP3      OH2            -4.8732105720        0.3452075841      -12.8954263352  W2        4645            0.0000000000
     13934      4645  TIP3      H1             -4.6907105720       -0.1036424159      -12.0699263352  W2        4645            0.0000000000
     13935      4645  TIP3      H2             -5.4729205720       -0.2393524159      -13.3589663352  W2        4645            0.0000000000
     13936      4646  TIP3      OH2           -19.3432005720        1.1605775841       -8.3635863352  W2        4646            0.0000000000
     13937      4646  TIP3      H1            -18.8980405720        0.3688275841       -8.0616163352  W2        4646            0.0000000000
     13938      4646  TIP3      H2            -18.8769005720        1.8770975841       -7.9330263352  W2        4646            0.0000000000
     13939      4647  TIP3      OH2           -21.0391705720        4.1598775841       -7.2945663352  W2        4647            0.0000000000
     13940      4647  TIP3      H1            -20.5471905720        3.9389275841       -8.0853663352  W2        4647            0.0000000000
     13941      4647  TIP3      H2            -20.6770805720        5.0002175841       -7.0136163352  W2        4647            0.0000000000
     13942      4648  TIP3      OH2            -3.0427905720        0.4900275841       -1.0291663352  W2        4648            0.0000000000
     13943      4648  TIP3      H1             -3.9602205720        0.7607375841       -1.0648163352  W2        4648            0.0000000000
     13944      4648  TIP3      H2             -2.9198505720       -0.0451324159       -1.8131963352  W2        4648            0.0000000000
     13945      4649  TIP3      OH2            -3.0065905720        0.4130175841      -16.3673963352  W2        4649            0.0000000000
     13946      4649  TIP3      H1             -2.5943305720       -0.3084124159      -16.8425963352  W2        4649            0.0000000000
     13947      4649  TIP3      H2             -2.3249405720        1.0824775841      -16.3089663352  W2        4649            0.0000000000
     13948      4650  TIP3      OH2           -20.7255205720        0.4177875841      -13.2403263352  W2        4650            0.0000000000
     13949      4650  TIP3      H1            -21.6506805720        0.6264475841      -13.3697763352  W2        4650            0.0000000000
     13950      4650  TIP3      H2            -20.2715305720        0.9018675841      -13.9300963352  W2        4650            0.0000000000
     13951      4651  TIP3      OH2            -5.9548005720       15.4019575841      -11.2945863352  W2        4651            0.0000000000
     13952      4651  TIP3      H1             -5.3025105720       15.0541675841      -11.9026763352  W2        4651            0.0000000000
     13953      4651  TIP3      H2             -5.4444205720       15.8902775841      -10.6486163352  W2        4651            0.0000000000
     13954      4652  TIP3      OH2           -20.7619805720       -0.8443124159       -4.8960763352  W2        4652            0.0000000000
     13955      4652  TIP3      H1            -21.4269305720       -1.0902824159       -4.2529863352  W2        4652            0.0000000000
     13956      4652  TIP3      H2            -21.2048505720       -0.2222724159       -5.4732763352  W2        4652            0.0000000000
     13957      4653  TIP3      OH2           -18.5700505720       12.3310975841       -0.7514963352  W2        4653            0.0000000000
     13958      4653  TIP3      H1            -19.3908005720       12.5057475841       -1.2120263352  W2        4653            0.0000000000
     13959      4653  TIP3      H2            -18.8222705720       12.2575675841        0.1689436648  W2        4653            0.0000000000
     13960      4654  TIP3      OH2           -15.6157605720       13.3052175841       -4.4930963352  W2        4654            0.0000000000
     13961      4654  TIP3      H1            -16.0406505720       14.1150675841       -4.7756363352  W2        4654            0.0000000000
     13962      4654  TIP3      H2            -14.7114805720       13.3906275841       -4.7951163352  W2        4654            0.0000000000
     13963      4655  TIP3      OH2           -11.3046205720       14.7042175841       -1.5337263352  W2        4655            0.0000000000
     13964      4655  TIP3      H1            -11.1198705720       14.3708275841       -0.6556963352  W2        4655            0.0000000000
     13965      4655  TIP3      H2            -10.4581705720       15.0140775841       -1.8558063352  W2        4655            0.0000000000
     13966      4656  TIP3      OH2            -8.9595805720       15.9901075841       -2.2895863352  W2        4656            0.0000000000
     13967      4656  TIP3      H1             -8.2826905720       15.3573375841       -2.5296663352  W2        4656            0.0000000000
     13968      4656  TIP3      H2             -8.6377005720       16.3911575841       -1.4822563352  W2        4656            0.0000000000
     13969      4657  TIP3      OH2            -4.0422005720       -1.4203424159       -3.2100863352  W2        4657            0.0000000000
     13970      4657  TIP3      H1             -4.8548505720       -1.0953124159       -3.5976163352  W2        4657            0.0000000000
     13971      4657  TIP3      H2             -3.8093505720       -2.1804924159       -3.7431763352  W2        4657            0.0000000000
     13972      4658  TIP3      OH2           -18.2140905720       16.5616075841       -4.4455663352  W2        4658            0.0000000000
     13973      4658  TIP3      H1            -18.9344505720       17.0017075841       -4.8967963352  W2        4658            0.0000000000
     13974      4658  TIP3      H2            -18.5796905720       16.3110775841       -3.5971663352  W2        4658            0.0000000000
     13975      4659  TIP3      OH2           -15.7468305720       16.1619975841       -5.4158463352  W2        4659            0.0000000000
     13976      4659  TIP3      H1            -16.6116105720       16.2338475841       -5.0118363352  W2        4659            0.0000000000
     13977      4659  TIP3      H2            -15.8019305720       16.7087275841       -6.1995963352  W2        4659            0.0000000000
     13978      4660  TIP3      OH2           -11.0362705720       16.0498875841       -6.2402463352  W2        4660            0.0000000000
     13979      4660  TIP3      H1            -11.4928705720       16.5788575841       -6.8944063352  W2        4660            0.0000000000
     13980      4660  TIP3      H2            -10.8734705720       16.6530275841       -5.5150163352  W2        4660            0.0000000000
     13981      4661  TIP3      OH2            -8.7086405720       14.9278475841       -5.2952163352  W2        4661            0.0000000000
     13982      4661  TIP3      H1             -9.6132705720       15.0928675841       -5.5610063352  W2        4661            0.0000000000
     13983      4661  TIP3      H2             -8.2797805720       15.7810675841       -5.3608763352  W2        4661            0.0000000000
     13984      4662  TIP3      OH2            -6.1044505720       16.4977575841       -5.0004363352  W2        4662            0.0000000000
     13985      4662  TIP3      H1             -6.2862505720       17.4136475841       -5.2109463352  W2        4662            0.0000000000
     13986      4662  TIP3      H2             -5.9276705720       16.0874675841       -5.8469763352  W2        4662            0.0000000000
     13987      4663  TIP3      OH2           -18.7992805720       15.1848575841       -7.5353863352  W2        4663            0.0000000000
     13988      4663  TIP3      H1            -18.8176805720       14.7593675841       -6.6781563352  W2        4663            0.0000000000
     13989      4663  TIP3      H2            -17.9944905720       14.8663575841       -7.9441663352  W2        4663            0.0000000000
     13990      4664  TIP3      OH2           -16.6579705720       13.8947275841       -8.8803963352  W2        4664            0.0000000000
     13991      4664  TIP3      H1            -16.8769005720       12.9784675841       -8.7107963352  W2        4664            0.0000000000
     13992      4664  TIP3      H2            -15.8337505720       14.0347675841       -8.4142563352  W2        4664            0.0000000000
     13993      4665  TIP3      OH2           -14.1207205720       14.3646575841       -8.0315963352  W2        4665            0.0000000000
     13994      4665  TIP3      H1            -13.9081505720       13.4765575841       -8.3185063352  W2        4665            0.0000000000
     13995      4665  TIP3      H2            -14.0562105720       14.3304275841       -7.0771963352  W2        4665            0.0000000000
     13996      4666  TIP3      OH2           -10.6123505720        0.0287175841       -8.8872663352  W2        4666            0.0000000000
     13997      4666  TIP3      H1            -11.2866705720       -0.6007224159       -8.6316863352  W2        4666            0.0000000000
     13998      4666  TIP3      H2            -10.0484305720       -0.4553924159       -9.4904763352  W2        4666            0.0000000000
     13999      4667  TIP3      OH2            -5.4696305720       -1.8638824159       -8.7745563352  W2        4667            0.0000000000
     14000      4667  TIP3      H1             -4.8658705720       -1.3163424159       -9.2764563352  W2        4667            0.0000000000
     14001      4667  TIP3      H2             -6.3394305720       -1.5448424159       -9.0151463352  W2        4667            0.0000000000
     14002      4668  TIP3      OH2            -3.7425905720       -0.7250124159      -10.4414663352  W2        4668            0.0000000000
     14003      4668  TIP3      H1             -3.1308405720       -1.2394424159      -10.9681063352  W2        4668            0.0000000000
     14004      4668  TIP3      H2             -3.3602505720        0.1521975841      -10.4180263352  W2        4668            0.0000000000
     14005      4669  TIP3      OH2           -18.2856005720       -1.3372524159      -11.0652763352  W2        4669            0.0000000000
     14006      4669  TIP3      H1            -19.0626205720       -1.5717624159      -11.5726863352  W2        4669            0.0000000000
     14007      4669  TIP3      H2            -17.7552405720       -2.1340424159      -11.0564763352  W2        4669            0.0000000000
     14008      4670  TIP3      OH2           -19.4492605720       -1.5394424159      -15.2616663352  W2        4670            0.0000000000
     14009      4670  TIP3      H1            -19.0101905720       -0.9283924159      -15.8533163352  W2        4670            0.0000000000
     14010      4670  TIP3      H2            -20.0830205720       -1.0010324159      -14.7876663352  W2        4670            0.0000000000
     14011      4671  TIP3      OH2           -13.7063405720       -1.4105424159      -11.2519663352  W2        4671            0.0000000000
     14012      4671  TIP3      H1            -12.8320005720       -1.0221124159      -11.2815363352  W2        4671            0.0000000000
     14013      4671  TIP3      H2            -13.8422605720       -1.6257624159      -10.3292463352  W2        4671            0.0000000000
     14014      4672  TIP3      OH2            -8.1495005720       -1.3805624159       -9.6027963352  W2        4672            0.0000000000
     14015      4672  TIP3      H1             -8.0733405720       -1.2854024159      -10.5521963352  W2        4672            0.0000000000
     14016      4672  TIP3      H2             -8.4245805720       -2.2882724159       -9.4738863352  W2        4672            0.0000000000
     14017      4673  TIP3      OH2            -6.7962405720       -1.3547824159      -13.9102963352  W2        4673            0.0000000000
     14018      4673  TIP3      H1             -7.4991305720       -0.7398624159      -14.1201563352  W2        4673            0.0000000000
     14019      4673  TIP3      H2             -7.2411005720       -2.1921124159      -13.7792063352  W2        4673            0.0000000000
     14020      4674  TIP3      OH2           -19.5483105720       14.4087775841      -14.3641563352  W2        4674            0.0000000000
     14021      4674  TIP3      H1            -20.2333205720       14.3706675841      -15.0316463352  W2        4674            0.0000000000
     14022      4674  TIP3      H2            -19.5445905720       15.3215375841      -14.0759463352  W2        4674            0.0000000000
     14023      4675  TIP3      OH2           -17.5883505720        0.3767075841      -16.8192563352  W2        4675            0.0000000000
     14024      4675  TIP3      H1            -17.0970105720       -0.2530524159      -17.3467063352  W2        4675            0.0000000000
     14025      4675  TIP3      H2            -16.9647205720        0.6726475841      -16.1561363352  W2        4675            0.0000000000
     14026      4676  TIP3      OH2           -12.5623405720        0.6698575841      -14.3622063352  W2        4676            0.0000000000
     14027      4676  TIP3      H1            -12.3842105720        0.0231775841      -13.6793463352  W2        4676            0.0000000000
     14028      4676  TIP3      H2            -12.6157205720        1.5036275841      -13.8950963352  W2        4676            0.0000000000
     14029      4677  TIP3      OH2           -10.6839605720       15.6182675841      -15.9665363352  W2        4677            0.0000000000
     14030      4677  TIP3      H1             -9.8179405720       15.9850075841      -16.1447163352  W2        4677            0.0000000000
     14031      4677  TIP3      H2            -10.9306805720       15.1790675841      -16.7804563352  W2        4677            0.0000000000
     14032      4678  TIP3      OH2            -3.9750005720       15.1812975841      -13.2874263352  W2        4678            0.0000000000
     14033      4678  TIP3      H1             -4.1692905720       14.4335075841      -13.8524663352  W2        4678            0.0000000000
     14034      4678  TIP3      H2             -4.0139905720       15.9393075841      -13.8706363352  W2        4678            0.0000000000
     14035      4679  TIP3      OH2           -18.3278005720       -0.8230624159       -1.5476563352  W2        4679            0.0000000000
     14036      4679  TIP3      H1            -18.6939805720       -1.5888024159       -1.1051863352  W2        4679            0.0000000000
     14037      4679  TIP3      H2            -17.4149505720       -0.7940424159       -1.2611463352  W2        4679            0.0000000000
     14038      4680  TIP3      OH2           -16.3547205720       -1.4726224159       -0.0119463352  W2        4680            0.0000000000
     14039      4680  TIP3      H1            -15.4563605720       -1.7466024159       -0.1966063352  W2        4680            0.0000000000
     14040      4680  TIP3      H2            -16.7414105720       -2.2150224159        0.4523136648  W2        4680            0.0000000000
     14041      4681  TIP3      OH2           -17.7301905720       15.3288575841      -17.3389463352  W2        4681            0.0000000000
     14042      4681  TIP3      H1            -17.9977305720       15.6151475841      -16.4656363352  W2        4681            0.0000000000
     14043      4681  TIP3      H2            -16.9589305720       14.7827775841      -17.1866963352  W2        4681            0.0000000000
     14044      4682  TIP3      OH2            -7.9334905720       -2.1400924159        0.1703336648  W2        4682            0.0000000000
     14045      4682  TIP3      H1             -7.8567705720       -2.5660224159        1.0241036648  W2        4682            0.0000000000
     14046      4682  TIP3      H2             -7.0398305720       -2.1266224159       -0.1723163352  W2        4682            0.0000000000
     14047      4683  TIP3      OH2            -4.7573805720       13.9325375841       -1.1372463352  W2        4683            0.0000000000
     14048      4683  TIP3      H1             -5.5391905720       13.7463375841       -1.6571863352  W2        4683            0.0000000000
     14049      4683  TIP3      H2             -4.8293905720       14.8619675841       -0.9199963352  W2        4683            0.0000000000
     14050      4684  TIP3      OH2             9.6486594280        7.8189775841      -11.1065263352  W2        4684            0.0000000000
     14051      4684  TIP3      H1              9.7377694280        8.7627975841      -11.2388163352  W2        4684            0.0000000000
     14052      4684  TIP3      H2              9.0104194280        7.5436175841      -11.7645863352  W2        4684            0.0000000000
     14053      4685  TIP3      OH2             8.5817894280        7.0740475841       -7.6877063352  W2        4685            0.0000000000
     14054      4685  TIP3      H1              8.5435394280        6.4276775841       -6.9827463352  W2        4685            0.0000000000
     14055      4685  TIP3      H2              8.2594394280        6.6074875841       -8.4588363352  W2        4685            0.0000000000
     14056      4686  TIP3      OH2             0.9502894280        6.6882575841       -6.0947163352  W2        4686            0.0000000000
     14057      4686  TIP3      H1              0.9914994280        6.0625875841       -5.3714763352  W2        4686            0.0000000000
     14058      4686  TIP3      H2              1.6530594280        7.3121175841       -5.9126763352  W2        4686            0.0000000000
     14059      4687  TIP3      OH2            12.2878094280       10.0130875841       -9.3861963352  W2        4687            0.0000000000
     14060      4687  TIP3      H1             11.8470794280        9.2926875841       -8.9356363352  W2        4687            0.0000000000
     14061      4687  TIP3      H2             12.2747794280       10.7338075841       -8.7564263352  W2        4687            0.0000000000
     14062      4688  TIP3      OH2             1.8735994280       11.1381475841       -7.5598063352  W2        4688            0.0000000000
     14063      4688  TIP3      H1              1.5041194280       10.3361975841       -7.9293763352  W2        4688            0.0000000000
     14064      4688  TIP3      H2              2.8147094280       10.9696375841       -7.5134663352  W2        4688            0.0000000000
     14065      4689  TIP3      OH2            -1.5163505720        4.7984075841      -12.1669263352  W2        4689            0.0000000000
     14066      4689  TIP3      H1             -1.9640105720        5.6442775841      -12.1852763352  W2        4689            0.0000000000
     14067      4689  TIP3      H2             -2.0772305720        4.2188275841      -12.6824163352  W2        4689            0.0000000000
     14068      4690  TIP3      OH2            -0.8057405720        6.9603675841      -10.0411263352  W2        4690            0.0000000000
     14069      4690  TIP3      H1             -0.5923905720        6.1905275841       -9.5138263352  W2        4690            0.0000000000
     14070      4690  TIP3      H2             -0.0679805720        7.0500375841      -10.6443663352  W2        4690            0.0000000000
     14071      4691  TIP3      OH2             9.3993594280       15.1172575841       -9.1741563352  W2        4691            0.0000000000
     14072      4691  TIP3      H1             10.0189994280       14.4407275841       -9.4472363352  W2        4691            0.0000000000
     14073      4691  TIP3      H2              9.1910994280       14.8993375841       -8.2656663352  W2        4691            0.0000000000
     14074      4692  TIP3      OH2             6.9712294280        9.5061875841       -7.2816063352  W2        4692            0.0000000000
     14075      4692  TIP3      H1              7.2750194280        8.8203275841       -7.8761963352  W2        4692            0.0000000000
     14076      4692  TIP3      H2              7.6926294280        9.6250575841       -6.6638063352  W2        4692            0.0000000000
     14077      4693  TIP3      OH2            15.6342094280        1.1077175841       -6.4209863352  W2        4693            0.0000000000
     14078      4693  TIP3      H1             15.6834294280        1.7178375841       -5.6850763352  W2        4693            0.0000000000
     14079      4693  TIP3      H2             16.0597194280        1.5688075841       -7.1438763352  W2        4693            0.0000000000
     14080      4694  TIP3      OH2            10.1119294280        3.9004275841       -6.9541263352  W2        4694            0.0000000000
     14081      4694  TIP3      H1             10.2545194280        2.9541275841       -6.9339663352  W2        4694            0.0000000000
     14082      4694  TIP3      H2             10.0058294280        4.1074075841       -7.8826363352  W2        4694            0.0000000000
     14083      4695  TIP3      OH2             3.2667594280        2.0020675841       -9.6816463352  W2        4695            0.0000000000
     14084      4695  TIP3      H1              3.3098694280        2.8619175841      -10.1000163352  W2        4695            0.0000000000
     14085      4695  TIP3      H2              2.8091694280        1.4495375841      -10.3153263352  W2        4695            0.0000000000
     14086      4696  TIP3      OH2            10.9890294280        2.1326275841      -11.2808163352  W2        4696            0.0000000000
     14087      4696  TIP3      H1             11.6354594280        1.8039475841      -10.6560563352  W2        4696            0.0000000000
     14088      4696  TIP3      H2             11.4989694280        2.6505275841      -11.9036763352  W2        4696            0.0000000000
     14089      4697  TIP3      OH2            -0.1130905720        4.3986475841       -8.9195063352  W2        4697            0.0000000000
     14090      4697  TIP3      H1              0.5405694280        3.8488175841       -8.4874963352  W2        4697            0.0000000000
     14091      4697  TIP3      H2             -0.0891605720        4.1245475841       -9.8363063352  W2        4697            0.0000000000
     14092      4698  TIP3      OH2             5.0433594280        5.9487775841       -9.7043563352  W2        4698            0.0000000000
     14093      4698  TIP3      H1              5.6594594280        5.4223175841       -9.1949563352  W2        4698            0.0000000000
     14094      4698  TIP3      H2              4.4572394280        5.3086475841      -10.1079963352  W2        4698            0.0000000000
     14095      4699  TIP3      OH2            16.0256694280        2.5856375841       -4.1850063352  W2        4699            0.0000000000
     14096      4699  TIP3      H1             15.3371294280        3.2437075841       -4.2803463352  W2        4699            0.0000000000
     14097      4699  TIP3      H2             16.0411294280        2.3884275841       -3.2484663352  W2        4699            0.0000000000
     14098      4700  TIP3      OH2             2.0769494280        0.9199075841       -5.6075663352  W2        4700            0.0000000000
     14099      4700  TIP3      H1              1.8581194280        1.4499675841       -6.3739663352  W2        4700            0.0000000000
     14100      4700  TIP3      H2              1.4090394280        1.1464575841       -4.9604263352  W2        4700            0.0000000000
     14101      4701  TIP3      OH2             9.4459294280       10.4200175841      -12.0636563352  W2        4701            0.0000000000
     14102      4701  TIP3      H1              9.1504394280       10.0972475841      -12.9149663352  W2        4701            0.0000000000
     14103      4701  TIP3      H2              9.1217094280       11.3196875841      -12.0223963352  W2        4701            0.0000000000
     14104      4702  TIP3      OH2             4.6460894280        8.5954775841       -5.3201963352  W2        4702            0.0000000000
     14105      4702  TIP3      H1              3.9059994280        9.1936275841       -5.2166763352  W2        4702            0.0000000000
     14106      4702  TIP3      H2              5.3600394280        9.1494375841       -5.6358363352  W2        4702            0.0000000000
     14107      4703  TIP3      OH2            12.7528694280        1.4235575841       -9.3002263352  W2        4703            0.0000000000
     14108      4703  TIP3      H1             12.5376694280        0.6578975841       -8.7676263352  W2        4703            0.0000000000
     14109      4703  TIP3      H2             13.4086094280        1.8960175841       -8.7873763352  W2        4703            0.0000000000
     14110      4704  TIP3      OH2             1.6706794280        2.8120875841       -7.6553463352  W2        4704            0.0000000000
     14111      4704  TIP3      H1              2.2843094280        3.4448475841       -7.2821063352  W2        4704            0.0000000000
     14112      4704  TIP3      H2              2.1827494280        2.3395875841       -8.3116563352  W2        4704            0.0000000000
     14113      4705  TIP3      OH2             3.0535194280       10.5597775841       -4.5330463352  W2        4705            0.0000000000
     14114      4705  TIP3      H1              3.0482794280       11.4391275841       -4.9111163352  W2        4705            0.0000000000
     14115      4705  TIP3      H2              2.1999294280       10.4761875841       -4.1080563352  W2        4705            0.0000000000
     14116      4706  TIP3      OH2            -0.8253905720       10.2305675841      -13.7511163352  W2        4706            0.0000000000
     14117      4706  TIP3      H1             -1.0973005720       10.4596675841      -14.6398263352  W2        4706            0.0000000000
     14118      4706  TIP3      H2             -0.7798205720       11.0684475841      -13.2905863352  W2        4706            0.0000000000
     14119      4707  TIP3      OH2            12.7995794280       11.8521575841       -7.0382663352  W2        4707            0.0000000000
     14120      4707  TIP3      H1             11.8579494280       11.9105475841       -6.8765763352  W2        4707            0.0000000000
     14121      4707  TIP3      H2             13.0761894280       12.7582075841       -7.1752963352  W2        4707            0.0000000000
     14122      4708  TIP3      OH2            13.1002794280        0.1386875841       -5.6208763352  W2        4708            0.0000000000
     14123      4708  TIP3      H1             12.3641994280        0.7493975841       -5.6587463352  W2        4708            0.0000000000
     14124      4708  TIP3      H2             13.7836794280        0.5535875841       -6.1472363352  W2        4708            0.0000000000
     14125      4709  TIP3      OH2             6.1034194280       -1.7745824159       -8.1550763352  W2        4709            0.0000000000
     14126      4709  TIP3      H1              5.9858394280       -2.7229824159       -8.2092463352  W2        4709            0.0000000000
     14127      4709  TIP3      H2              5.2484294280       -1.4419724159       -7.8819663352  W2        4709            0.0000000000
     14128      4710  TIP3      OH2            11.0516994280       13.6335075841      -10.4131063352  W2        4710            0.0000000000
     14129      4710  TIP3      H1             11.4769294280       12.9262975841      -10.8981463352  W2        4710            0.0000000000
     14130      4710  TIP3      H2             11.3686994280       14.4347775841      -10.8298863352  W2        4710            0.0000000000
     14131      4711  TIP3      OH2            12.2113494280       11.5343575841      -11.9044463352  W2        4711            0.0000000000
     14132      4711  TIP3      H1             11.9538294280       10.8443675841      -12.5158563352  W2        4711            0.0000000000
     14133      4711  TIP3      H2             12.2824294280       11.0914775841      -11.0588563352  W2        4711            0.0000000000
     14134      4712  TIP3      OH2            13.8973694280       10.1010275841       -3.4270963352  W2        4712            0.0000000000
     14135      4712  TIP3      H1             14.0369994280        9.5092775841       -4.1663963352  W2        4712            0.0000000000
     14136      4712  TIP3      H2             14.0646494280       10.9736175841       -3.7832163352  W2        4712            0.0000000000
     14137      4713  TIP3      OH2             8.3699094280        7.0629775841      -13.6544963352  W2        4713            0.0000000000
     14138      4713  TIP3      H1              7.6584594280        7.5979475841      -14.0064463352  W2        4713            0.0000000000
     14139      4713  TIP3      H2              9.0608694280        7.1181875841      -14.3146063352  W2        4713            0.0000000000
     14140      4714  TIP3      OH2             8.4238294280        5.5204075841      -16.6159963352  W2        4714            0.0000000000
     14141      4714  TIP3      H1              9.1248194280        5.5430975841      -15.9645963352  W2        4714            0.0000000000
     14142      4714  TIP3      H2              8.7261194280        4.8923775841      -17.2720663352  W2        4714            0.0000000000
     14143      4715  TIP3      OH2            15.7392994280        6.4408275841       -5.3610563352  W2        4715            0.0000000000
     14144      4715  TIP3      H1             15.0867094280        7.1353875841       -5.2719663352  W2        4715            0.0000000000
     14145      4715  TIP3      H2             16.2043294280        6.6509175841       -6.1708963352  W2        4715            0.0000000000
     14146      4716  TIP3      OH2            11.7756794280        7.2723075841      -12.7029063352  W2        4716            0.0000000000
     14147      4716  TIP3      H1             11.0437794280        7.5006775841      -12.1298463352  W2        4716            0.0000000000
     14148      4716  TIP3      H2             12.2228994280        6.5585775841      -12.2481563352  W2        4716            0.0000000000
     14149      4717  TIP3      OH2            11.6730294280        5.4465675841       -3.6352063352  W2        4717            0.0000000000
     14150      4717  TIP3      H1             11.7529394280        6.2100075841       -3.0633563352  W2        4717            0.0000000000
     14151      4717  TIP3      H2             11.0717994280        5.7258075841       -4.3256963352  W2        4717            0.0000000000
     14152      4718  TIP3      OH2             3.4210494280        7.9029275841      -10.8204063352  W2        4718            0.0000000000
     14153      4718  TIP3      H1              3.0905694280        7.5322675841      -11.6387063352  W2        4718            0.0000000000
     14154      4718  TIP3      H2              4.0094594280        7.2323275841      -10.4735763352  W2        4718            0.0000000000
     14155      4719  TIP3      OH2             4.7877994280       11.3309875841       -8.1391863352  W2        4719            0.0000000000
     14156      4719  TIP3      H1              4.6929294280       10.7522975841       -8.8957263352  W2        4719            0.0000000000
     14157      4719  TIP3      H2              5.5171594280       10.9595575841       -7.6429063352  W2        4719            0.0000000000
     14158      4720  TIP3      OH2             3.7875994280        6.6714875841       -7.1869063352  W2        4720            0.0000000000
     14159      4720  TIP3      H1              4.3528494280        6.7929075841       -7.9497863352  W2        4720            0.0000000000
     14160      4720  TIP3      H2              4.1064894280        7.3089875841       -6.5480563352  W2        4720            0.0000000000
     14161      4721  TIP3      OH2            10.0968194280       12.1746775841       -6.4528563352  W2        4721            0.0000000000
     14162      4721  TIP3      H1              9.8564794280       12.8369875841       -5.8049363352  W2        4721            0.0000000000
     14163      4721  TIP3      H2              9.8986394280       11.3401975841       -6.0278963352  W2        4721            0.0000000000
     14164      4722  TIP3      OH2             4.6676694280       11.0707575841       -2.4697163352  W2        4722            0.0000000000
     14165      4722  TIP3      H1              4.3564194280       11.8530775841       -2.0143963352  W2        4722            0.0000000000
     14166      4722  TIP3      H2              4.0176894280       10.9176675841       -3.1555163352  W2        4722            0.0000000000
     14167      4723  TIP3      OH2            10.6466294280        6.4345975841      -15.0177863352  W2        4723            0.0000000000
     14168      4723  TIP3      H1             11.2261794280        6.5846275841      -14.2708963352  W2        4723            0.0000000000
     14169      4723  TIP3      H2             11.0606294280        6.9053375841      -15.7411463352  W2        4723            0.0000000000
     14170      4724  TIP3      OH2             1.5876594280        7.2688675841       -3.2411463352  W2        4724            0.0000000000
     14171      4724  TIP3      H1              1.6579794280        7.9195475841       -2.5426463352  W2        4724            0.0000000000
     14172      4724  TIP3      H2              0.6968794280        7.3716175841       -3.5760563352  W2        4724            0.0000000000
     14173      4725  TIP3      OH2             8.3731194280       13.1714475841      -11.5824763352  W2        4725            0.0000000000
     14174      4725  TIP3      H1              8.8468794280       13.4670775841      -10.8050563352  W2        4725            0.0000000000
     14175      4725  TIP3      H2              7.8100494280       13.9096075841      -11.8155163352  W2        4725            0.0000000000
     14176      4726  TIP3      OH2             2.9072594280       13.1422575841       -1.7063363352  W2        4726            0.0000000000
     14177      4726  TIP3      H1              2.9147894280       13.0062275841       -2.6537863352  W2        4726            0.0000000000
     14178      4726  TIP3      H2              1.9912994280       13.0250675841       -1.4543363352  W2        4726            0.0000000000
     14179      4727  TIP3      OH2            14.3454694280       -1.8153624159      -15.2048163352  W2        4727            0.0000000000
     14180      4727  TIP3      H1             13.4455394280       -1.6764624159      -14.9097563352  W2        4727            0.0000000000
     14181      4727  TIP3      H2             14.5973094280       -0.9839024159      -15.6066463352  W2        4727            0.0000000000
     14182      4728  TIP3      OH2             2.4113194280        6.9723575841      -13.2311263352  W2        4728            0.0000000000
     14183      4728  TIP3      H1              2.1194494280        7.7405275841      -13.7219963352  W2        4728            0.0000000000
     14184      4728  TIP3      H2              1.7368394280        6.3129775841      -13.3939863352  W2        4728            0.0000000000
     14185      4729  TIP3      OH2            15.5346094280       12.5508775841      -16.8284263352  W2        4729            0.0000000000
     14186      4729  TIP3      H1             15.6079594280       13.4898975841      -16.6578963352  W2        4729            0.0000000000
     14187      4729  TIP3      H2             16.4401194280       12.2457375841      -16.8846963352  W2        4729            0.0000000000
     14188      4730  TIP3      OH2            -1.4956705720        9.3352775841       -4.4161463352  W2        4730            0.0000000000
     14189      4730  TIP3      H1             -1.9968305720        9.3072175841       -5.2311763352  W2        4730            0.0000000000
     14190      4730  TIP3      H2             -1.4903005720        8.4295975841       -4.1064163352  W2        4730            0.0000000000
     14191      4731  TIP3      OH2            -1.7454005720       12.1156575841       -7.5321263352  W2        4731            0.0000000000
     14192      4731  TIP3      H1             -0.7993405720       11.9713575841       -7.5511763352  W2        4731            0.0000000000
     14193      4731  TIP3      H2             -1.8577705720       12.8999375841       -6.9950063352  W2        4731            0.0000000000
     14194      4732  TIP3      OH2            16.4524494280       12.7816275841       -1.8497563352  W2        4732            0.0000000000
     14195      4732  TIP3      H1             16.4031294280       11.8264375841       -1.8869963352  W2        4732            0.0000000000
     14196      4732  TIP3      H2             15.6256794280       13.0491575841       -1.4483763352  W2        4732            0.0000000000
     14197      4733  TIP3      OH2             7.4308494280       12.3555475841       -2.9736163352  W2        4733            0.0000000000
     14198      4733  TIP3      H1              7.5183094280       13.1820075841       -2.4987063352  W2        4733            0.0000000000
     14199      4733  TIP3      H2              6.5673594280       12.0259275841       -2.7246863352  W2        4733            0.0000000000
     14200      4734  TIP3      OH2             7.8454294280       16.1279175841      -13.1675563352  W2        4734            0.0000000000
     14201      4734  TIP3      H1              7.7700294280       16.0066375841      -14.1140363352  W2        4734            0.0000000000
     14202      4734  TIP3      H2              7.8782994280       17.0771875841      -13.0490963352  W2        4734            0.0000000000
     14203      4735  TIP3      OH2             1.4988094280       14.9166175841      -11.3866563352  W2        4735            0.0000000000
     14204      4735  TIP3      H1              1.6508494280       14.5686575841      -10.5080063352  W2        4735            0.0000000000
     14205      4735  TIP3      H2              0.6478494280       14.5603475841      -11.6419363352  W2        4735            0.0000000000
     14206      4736  TIP3      OH2            10.9470294280       15.2819375841      -16.1653163352  W2        4736            0.0000000000
     14207      4736  TIP3      H1             11.3218694280       14.5375475841      -16.6360563352  W2        4736            0.0000000000
     14208      4736  TIP3      H2             10.9513994280       15.0119975841      -15.2469863352  W2        4736            0.0000000000
     14209      4737  TIP3      OH2            10.6158394280       15.2076475841      -13.4160963352  W2        4737            0.0000000000
     14210      4737  TIP3      H1              9.6808194280       15.3078375841      -13.2373963352  W2        4737            0.0000000000
     14211      4737  TIP3      H2             10.8960294280       14.4982475841      -12.8377763352  W2        4737            0.0000000000
     14212      4738  TIP3      OH2            13.6044294280        4.2748775841       -1.3695363352  W2        4738            0.0000000000
     14213      4738  TIP3      H1             13.1971094280        4.7554375841       -2.0902063352  W2        4738            0.0000000000
     14214      4738  TIP3      H2             13.6449994280        3.3694775841       -1.6774563352  W2        4738            0.0000000000
     14215      4739  TIP3      OH2             0.7533794280       10.6588175841       -3.3728663352  W2        4739            0.0000000000
     14216      4739  TIP3      H1              0.9695094280       10.2973775841       -2.5132863352  W2        4739            0.0000000000
     14217      4739  TIP3      H2             -0.1021505720       10.2841975841       -3.5825163352  W2        4739            0.0000000000
     14218      4740  TIP3      OH2             3.3721794280       -0.8711324159       -7.3774463352  W2        4740            0.0000000000
     14219      4740  TIP3      H1              2.5105494280       -0.9583124159       -7.7851563352  W2        4740            0.0000000000
     14220      4740  TIP3      H2              3.3497494280       -0.0151224159       -6.9496863352  W2        4740            0.0000000000
     14221      4741  TIP3      OH2             8.0349594280       -1.1490924159       -4.0027463352  W2        4741            0.0000000000
     14222      4741  TIP3      H1              8.4552694280       -1.5643824159       -3.2496863352  W2        4741            0.0000000000
     14223      4741  TIP3      H2              7.1019194280       -1.3277624159       -3.8855463352  W2        4741            0.0000000000
     14224      4742  TIP3      OH2            11.3614494280        2.6064275841       -3.1492963352  W2        4742            0.0000000000
     14225      4742  TIP3      H1             10.8473994280        2.4806475841       -2.3516963352  W2        4742            0.0000000000
     14226      4742  TIP3      H2             11.2059194280        3.5187375841       -3.3936763352  W2        4742            0.0000000000
     14227      4743  TIP3      OH2            12.1239394280        7.4674275841      -17.3879963352  W2        4743            0.0000000000
     14228      4743  TIP3      H1             12.1660194280        7.2448175841      -18.3179963352  W2        4743            0.0000000000
     14229      4743  TIP3      H2             12.9731494280        7.8661375841      -17.1980063352  W2        4743            0.0000000000
     14230      4744  TIP3      OH2             7.6966894280        1.3432475841      -16.7176663352  W2        4744            0.0000000000
     14231      4744  TIP3      H1              7.4431694280        1.3624075841      -15.7948563352  W2        4744            0.0000000000
     14232      4744  TIP3      H2              7.4398994280        0.4717875841      -17.0190463352  W2        4744            0.0000000000
     14233      4745  TIP3      OH2             3.4631894280        4.0943175841       -6.2824263352  W2        4745            0.0000000000
     14234      4745  TIP3      H1              2.8213994280        4.0540475841       -5.5734163352  W2        4745            0.0000000000
     14235      4745  TIP3      H2              3.5003894280        5.0207875841       -6.5201263352  W2        4745            0.0000000000
     14236      4746  TIP3      OH2             3.4600994280        4.3153275841      -11.3704263352  W2        4746            0.0000000000
     14237      4746  TIP3      H1              2.5673894280        3.9749375841      -11.4290463352  W2        4746            0.0000000000
     14238      4746  TIP3      H2              3.9107594280        3.9384175841      -12.1261063352  W2        4746            0.0000000000
     14239      4747  TIP3      OH2             8.9956494280        4.7313575841      -12.5533463352  W2        4747            0.0000000000
     14240      4747  TIP3      H1              8.5866794280        5.5462175841      -12.8448663352  W2        4747            0.0000000000
     14241      4747  TIP3      H2              9.7162694280        4.5913675841      -13.1676363352  W2        4747            0.0000000000
     14242      4748  TIP3      OH2             8.0978094280        4.9069975841       -1.0652763352  W2        4748            0.0000000000
     14243      4748  TIP3      H1              7.5351894280        4.2021575841       -0.7444963352  W2        4748            0.0000000000
     14244      4748  TIP3      H2              8.9241494280        4.7861875841       -0.5975163352  W2        4748            0.0000000000
     14245      4749  TIP3      OH2            10.0004194280        4.1773975841       -9.7393763352  W2        4749            0.0000000000
     14246      4749  TIP3      H1              9.8048694280        4.7830775841      -10.4543163352  W2        4749            0.0000000000
     14247      4749  TIP3      H2             10.1816794280        3.3439175841      -10.1737463352  W2        4749            0.0000000000
     14248      4750  TIP3      OH2             1.2132394280        4.4146675841       -4.4152263352  W2        4750            0.0000000000
     14249      4750  TIP3      H1              1.1751794280        4.8148275841       -3.5465163352  W2        4750            0.0000000000
     14250      4750  TIP3      H2              0.7223494280        3.5979075841       -4.3249363352  W2        4750            0.0000000000
     14251      4751  TIP3      OH2             4.5789794280        1.7888975841      -17.6166263352  W2        4751            0.0000000000
     14252      4751  TIP3      H1              4.1480494280        1.3439075841      -16.8868863352  W2        4751            0.0000000000
     14253      4751  TIP3      H2              3.8608494280        2.1605275841      -18.1288763352  W2        4751            0.0000000000
     14254      4752  TIP3      OH2            -2.1786805720        1.5308475841      -10.5647563352  W2        4752            0.0000000000
     14255      4752  TIP3      H1             -1.5479105720        1.5020575841       -9.8453663352  W2        4752            0.0000000000
     14256      4752  TIP3      H2             -1.7292505720        1.1057175841      -11.2951663352  W2        4752            0.0000000000
     14257      4753  TIP3      OH2            -0.9044705720        2.2770475841      -15.1407163352  W2        4753            0.0000000000
     14258      4753  TIP3      H1             -0.4303005720        2.8680375841      -15.7256263352  W2        4753            0.0000000000
     14259      4753  TIP3      H2             -1.6218305720        2.8073375841      -14.7937063352  W2        4753            0.0000000000
     14260      4754  TIP3      OH2             9.2643394280        5.8155275841       -5.0681363352  W2        4754            0.0000000000
     14261      4754  TIP3      H1              9.5878194280        5.1844975841       -5.7110863352  W2        4754            0.0000000000
     14262      4754  TIP3      H2              8.8242694280        5.2807475841       -4.4073963352  W2        4754            0.0000000000
     14263      4755  TIP3      OH2             6.0416294280        1.7430775841      -10.2840163352  W2        4755            0.0000000000
     14264      4755  TIP3      H1              5.1307394280        1.7997575841       -9.9954163352  W2        4755            0.0000000000
     14265      4755  TIP3      H2              6.5469194280        1.6826275841       -9.4732963352  W2        4755            0.0000000000
     14266      4756  TIP3      OH2             0.8699694280        3.3717075841      -11.4572563352  W2        4756            0.0000000000
     14267      4756  TIP3      H1             -0.0192305720        3.4712575841      -11.7972963352  W2        4756            0.0000000000
     14268      4756  TIP3      H2              1.1664594280        2.5300075841      -11.8034663352  W2        4756            0.0000000000
     14269      4757  TIP3      OH2             4.5231494280        3.3719675841      -13.8007963352  W2        4757            0.0000000000
     14270      4757  TIP3      H1              5.4546994280        3.5009675841      -13.6224863352  W2        4757            0.0000000000
     14271      4757  TIP3      H2              4.3081794280        4.0413975841      -14.4503263352  W2        4757            0.0000000000
     14272      4758  TIP3      OH2            10.4468194280        0.9777075841       -7.0198363352  W2        4758            0.0000000000
     14273      4758  TIP3      H1              9.7699794280        1.1090175841       -6.3558663352  W2        4758            0.0000000000
     14274      4758  TIP3      H2              9.9613094280        0.8226575841       -7.8300663352  W2        4758            0.0000000000
     14275      4759  TIP3      OH2             3.1971694280        4.5661875841      -16.2341863352  W2        4759            0.0000000000
     14276      4759  TIP3      H1              2.6546794280        4.1865675841      -16.9254263352  W2        4759            0.0000000000
     14277      4759  TIP3      H2              4.0306594280        4.7606575841      -16.6627763352  W2        4759            0.0000000000
     14278      4760  TIP3      OH2            13.7343294280       16.6492475841       -0.7430763352  W2        4760            0.0000000000
     14279      4760  TIP3      H1             13.9341994280       17.0734375841       -1.5775463352  W2        4760            0.0000000000
     14280      4760  TIP3      H2             14.3896994280       16.9930675841       -0.1360363352  W2        4760            0.0000000000
     14281      4761  TIP3      OH2             1.3323094280        9.1233775841       -1.1350263352  W2        4761            0.0000000000
     14282      4761  TIP3      H1              2.0645494280        9.3779675841       -0.5735763352  W2        4761            0.0000000000
     14283      4761  TIP3      H2              0.5521794280        9.3279175841       -0.6194863352  W2        4761            0.0000000000
     14284      4762  TIP3      OH2             7.3615994280        4.5303775841       -8.3970563352  W2        4762            0.0000000000
     14285      4762  TIP3      H1              7.9259394280        3.9840375841       -8.9440963352  W2        4762            0.0000000000
     14286      4762  TIP3      H2              7.2139394280        4.0085675841       -7.6082963352  W2        4762            0.0000000000
     14287      4763  TIP3      OH2             2.3635694280        0.6669875841      -11.9785763352  W2        4763            0.0000000000
     14288      4763  TIP3      H1              2.0465194280       -0.2354824159      -12.0140363352  W2        4763            0.0000000000
     14289      4763  TIP3      H2              3.1449794280        0.6687275841      -12.5314163352  W2        4763            0.0000000000
     14290      4764  TIP3      OH2             5.9881894280        2.9189875841       -5.9830163352  W2        4764            0.0000000000
     14291      4764  TIP3      H1              5.1527194280        3.3729375841       -5.8727763352  W2        4764            0.0000000000
     14292      4764  TIP3      H2              6.5122494280        3.1948375841       -5.2310263352  W2        4764            0.0000000000
     14293      4765  TIP3      OH2             6.5324494280        9.1317575841      -14.2983763352  W2        4765            0.0000000000
     14294      4765  TIP3      H1              5.7875494280        8.6242875841      -14.6205863352  W2        4765            0.0000000000
     14295      4765  TIP3      H2              6.3981694280        9.1805575841      -13.3518963352  W2        4765            0.0000000000
     14296      4766  TIP3      OH2            13.6823394280        8.2645775841       -5.5116163352  W2        4766            0.0000000000
     14297      4766  TIP3      H1             14.3242194280        8.7212075841       -6.0553963352  W2        4766            0.0000000000
     14298      4766  TIP3      H2             12.8520294280        8.3778175841       -5.9742063352  W2        4766            0.0000000000
     14299      4767  TIP3      OH2            10.4301294280        1.9457475841      -16.0991163352  W2        4767            0.0000000000
     14300      4767  TIP3      H1              9.4915494280        2.0573075841      -16.2502363352  W2        4767            0.0000000000
     14301      4767  TIP3      H2             10.7273394280        2.8024375841      -15.7925463352  W2        4767            0.0000000000
     14302      4768  TIP3      OH2             8.0516594280        9.3160875841       -3.0614663352  W2        4768            0.0000000000
     14303      4768  TIP3      H1              7.7062694280        8.9343275841       -2.2545063352  W2        4768            0.0000000000
     14304      4768  TIP3      H2              7.8516694280       10.2494475841       -2.9901763352  W2        4768            0.0000000000
     14305      4769  TIP3      OH2            11.1484794280        3.8130175841      -14.4383763352  W2        4769            0.0000000000
     14306      4769  TIP3      H1             12.0403794280        3.6755175841      -14.1192563352  W2        4769            0.0000000000
     14307      4769  TIP3      H2             11.2048394280        4.6036275841      -14.9750263352  W2        4769            0.0000000000
     14308      4770  TIP3      OH2             1.6572794280        8.4267575841       -8.5285863352  W2        4770            0.0000000000
     14309      4770  TIP3      H1              2.4019994280        8.4243275841       -9.1299363352  W2        4770            0.0000000000
     14310      4770  TIP3      H2              1.7349394280        7.6031375841       -8.0470763352  W2        4770            0.0000000000
     14311      4771  TIP3      OH2             8.6578594280       10.5901875841      -15.2729163352  W2        4771            0.0000000000
     14312      4771  TIP3      H1              8.3626994280       11.4169775841      -14.8914363352  W2        4771            0.0000000000
     14313      4771  TIP3      H2              7.9548594280        9.9708775841      -15.0767763352  W2        4771            0.0000000000
     14314      4772  TIP3      OH2            -1.3347505720        6.8874475841       -3.2137363352  W2        4772            0.0000000000
     14315      4772  TIP3      H1             -1.1118905720        6.4694075841       -2.3819863352  W2        4772            0.0000000000
     14316      4772  TIP3      H2             -1.9367405720        6.2749475841       -3.6364563352  W2        4772            0.0000000000
     14317      4773  TIP3      OH2             5.6817394280        6.4044375841       -1.0007663352  W2        4773            0.0000000000
     14318      4773  TIP3      H1              5.3858194280        6.2387375841       -1.8958563352  W2        4773            0.0000000000
     14319      4773  TIP3      H2              6.6132594280        6.1844675841       -1.0113763352  W2        4773            0.0000000000
     14320      4774  TIP3      OH2            10.3020194280       11.7776375841       -3.1109663352  W2        4774            0.0000000000
     14321      4774  TIP3      H1              9.4014494280       11.9608975841       -3.3785763352  W2        4774            0.0000000000
     14322      4774  TIP3      H2             10.3361294280       12.0365675841       -2.1900863352  W2        4774            0.0000000000
     14323      4775  TIP3      OH2            16.0333494280        4.0224275841      -14.7437063352  W2        4775            0.0000000000
     14324      4775  TIP3      H1             15.4789794280        3.6262275841      -15.4159563352  W2        4775            0.0000000000
     14325      4775  TIP3      H2             16.1337094280        4.9329475841      -15.0213763352  W2        4775            0.0000000000
     14326      4776  TIP3      OH2            15.9965494280        9.8225975841       -1.9065563352  W2        4776            0.0000000000
     14327      4776  TIP3      H1             15.1453994280       10.0609775841       -2.2739163352  W2        4776            0.0000000000
     14328      4776  TIP3      H2             16.5868894280        9.8059175841       -2.6598463352  W2        4776            0.0000000000
     14329      4777  TIP3      OH2            14.3285194280       12.8084675841      -14.2784963352  W2        4777            0.0000000000
     14330      4777  TIP3      H1             13.9556294280       11.9828475841      -13.9694363352  W2        4777            0.0000000000
     14331      4777  TIP3      H2             14.6058694280       12.6254075841      -15.1761563352  W2        4777            0.0000000000
     14332      4778  TIP3      OH2            11.4889094280        7.6164175841       -7.2573063352  W2        4778            0.0000000000
     14333      4778  TIP3      H1             10.5605994280        7.3846075841       -7.2843763352  W2        4778            0.0000000000
     14334      4778  TIP3      H2             11.9400194280        6.8393975841       -7.5874263352  W2        4778            0.0000000000
     14335      4779  TIP3      OH2             4.0322194280       11.9445775841      -11.1244363352  W2        4779            0.0000000000
     14336      4779  TIP3      H1              4.5594394280       12.7180175841      -11.3245563352  W2        4779            0.0000000000
     14337      4779  TIP3      H2              3.1520694280       12.1694975841      -11.4260363352  W2        4779            0.0000000000
     14338      4780  TIP3      OH2            -0.2130105720        6.8069875841      -16.5371963352  W2        4780            0.0000000000
     14339      4780  TIP3      H1              0.4029794280        7.4337075841      -16.1577163352  W2        4780            0.0000000000
     14340      4780  TIP3      H2             -1.0747505720        7.1229675841      -16.2655463352  W2        4780            0.0000000000
     14341      4781  TIP3      OH2             5.4594494280        9.6075675841      -11.5480063352  W2        4781            0.0000000000
     14342      4781  TIP3      H1              5.2184494280       10.5330075841      -11.5064763352  W2        4781            0.0000000000
     14343      4781  TIP3      H2              4.7188094280        9.1486975841      -11.1516163352  W2        4781            0.0000000000
     14344      4782  TIP3      OH2             5.9741094280       13.7569275841       -5.2328963352  W2        4782            0.0000000000
     14345      4782  TIP3      H1              6.3365794280       14.6114875841       -5.4664563352  W2        4782            0.0000000000
     14346      4782  TIP3      H2              6.5056294280       13.4650875841       -4.4922663352  W2        4782            0.0000000000
     14347      4783  TIP3      OH2             4.1425294280       14.6293275841      -12.0027863352  W2        4783            0.0000000000
     14348      4783  TIP3      H1              3.1925794280       14.7350675841      -11.9514563352  W2        4783            0.0000000000
     14349      4783  TIP3      H2              4.4943394280       15.4500675841      -11.6580363352  W2        4783            0.0000000000
     14350      4784  TIP3      OH2             9.5181894280        9.8559975841       -5.5323363352  W2        4784            0.0000000000
     14351      4784  TIP3      H1              9.0923194280        9.6281675841       -4.7059363352  W2        4784            0.0000000000
     14352      4784  TIP3      H2             10.0987694280        9.1171775841       -5.7148063352  W2        4784            0.0000000000
     14353      4785  TIP3      OH2            11.7210794280       10.7850475841      -16.4584363352  W2        4785            0.0000000000
     14354      4785  TIP3      H1             12.0743894280       10.4050275841      -15.6540863352  W2        4785            0.0000000000
     14355      4785  TIP3      H2             10.7724294280       10.6915275841      -16.3715063352  W2        4785            0.0000000000
     14356      4786  TIP3      OH2            12.1766094280       14.4079475841       -3.0628563352  W2        4786            0.0000000000
     14357      4786  TIP3      H1             11.5749294280       13.8522375841       -3.5582263352  W2        4786            0.0000000000
     14358      4786  TIP3      H2             12.4579794280       15.0749275841       -3.6891163352  W2        4786            0.0000000000
     14359      4787  TIP3      OH2            16.2245194280       15.2642975841      -16.2574163352  W2        4787            0.0000000000
     14360      4787  TIP3      H1             16.9683094280       15.8503475841      -16.3972563352  W2        4787            0.0000000000
     14361      4787  TIP3      H2             15.5303294280       15.8328775841      -15.9241763352  W2        4787            0.0000000000
     14362      4788  TIP3      OH2             0.2991994280        1.6407175841       -3.6555963352  W2        4788            0.0000000000
     14363      4788  TIP3      H1             -0.5935705720        1.9792575841       -3.7231963352  W2        4788            0.0000000000
     14364      4788  TIP3      H2              0.2004794280        0.7853275841       -3.2375163352  W2        4788            0.0000000000
     14365      4789  TIP3      OH2            12.5870094280        9.4572475841      -14.2316463352  W2        4789            0.0000000000
     14366      4789  TIP3      H1             12.3097694280        8.7291775841      -13.6755363352  W2        4789            0.0000000000
     14367      4789  TIP3      H2             13.5143094280        9.5764475841      -14.0263863352  W2        4789            0.0000000000
     14368      4790  TIP3      OH2            -0.0496005720       13.4451575841       -5.2206563352  W2        4790            0.0000000000
     14369      4790  TIP3      H1              0.1674294280       12.5133975841       -5.2516863352  W2        4790            0.0000000000
     14370      4790  TIP3      H2              0.1967494280       13.7196575841       -4.3373763352  W2        4790            0.0000000000
     14371      4791  TIP3      OH2             5.8118594280       11.8966575841      -18.0114363352  W2        4791            0.0000000000
     14372      4791  TIP3      H1              6.0508394280       11.1484675841      -18.5585463352  W2        4791            0.0000000000
     14373      4791  TIP3      H2              5.5429894280       11.5088275841      -17.1786563352  W2        4791            0.0000000000
     14374      4792  TIP3      OH2             4.7489194280       11.4670375841      -15.5551763352  W2        4792            0.0000000000
     14375      4792  TIP3      H1              4.8957194280       10.9470175841      -14.7650863352  W2        4792            0.0000000000
     14376      4792  TIP3      H2              4.7460894280       12.3737975841      -15.2485863352  W2        4792            0.0000000000
     14377      4793  TIP3      OH2             1.2020294280        8.7193675841      -15.0446363352  W2        4793            0.0000000000
     14378      4793  TIP3      H1              0.5159594280        9.0716175841      -14.4776663352  W2        4793            0.0000000000
     14379      4793  TIP3      H2              1.7248194280        9.4823275841      -15.2912063352  W2        4793            0.0000000000
     14380      4794  TIP3      OH2             9.0335394280        1.3817475841       -4.7657363352  W2        4794            0.0000000000
     14381      4794  TIP3      H1              9.7323294280        1.4556175841       -4.1157663352  W2        4794            0.0000000000
     14382      4794  TIP3      H2              8.6526794280        0.5172475841       -4.6114463352  W2        4794            0.0000000000
     14383      4795  TIP3      OH2             9.8180294280        1.0339175841      -13.6685063352  W2        4795            0.0000000000
     14384      4795  TIP3      H1             10.0378594280        1.5054575841      -14.4719663352  W2        4795            0.0000000000
     14385      4795  TIP3      H2             10.3764294280        1.4281775841      -12.9984463352  W2        4795            0.0000000000
     14386      4796  TIP3      OH2             7.4866394280       13.1643975841      -14.8057563352  W2        4796            0.0000000000
     14387      4796  TIP3      H1              6.6702494280       13.6613675841      -14.7533263352  W2        4796            0.0000000000
     14388      4796  TIP3      H2              8.0162694280       13.6397475841      -15.4458763352  W2        4796            0.0000000000
     14389      4797  TIP3      OH2             7.0180194280        2.7617975841      -12.8336663352  W2        4797            0.0000000000
     14390      4797  TIP3      H1              7.8302794280        3.2661175841      -12.7874963352  W2        4797            0.0000000000
     14391      4797  TIP3      H2              6.7733194280        2.6167675841      -11.9197063352  W2        4797            0.0000000000
     14392      4798  TIP3      OH2             7.5536594280        3.7480675841       -3.6490063352  W2        4798            0.0000000000
     14393      4798  TIP3      H1              7.6726894280        4.3216075841       -2.8919663352  W2        4798            0.0000000000
     14394      4798  TIP3      H2              8.2091194280        3.0600075841       -3.5342263352  W2        4798            0.0000000000
     14395      4799  TIP3      OH2             7.9016894280       -0.1569024159      -11.8955563352  W2        4799            0.0000000000
     14396      4799  TIP3      H1              7.5550394280        0.4601575841      -11.2511263352  W2        4799            0.0000000000
     14397      4799  TIP3      H2              8.5603794280        0.3436675841      -12.3770063352  W2        4799            0.0000000000
     14398      4800  TIP3      OH2             4.8249494280       14.2081175841      -14.8240663352  W2        4800            0.0000000000
     14399      4800  TIP3      H1              4.9858194280       15.0078675841      -15.3248063352  W2        4800            0.0000000000
     14400      4800  TIP3      H2              4.6277294280       14.5147175841      -13.9390063352  W2        4800            0.0000000000
     14401      4801  TIP3      OH2             3.5593894280        0.9060375841      -15.2083063352  W2        4801            0.0000000000
     14402      4801  TIP3      H1              3.4758694280        1.7943475841      -14.8616663352  W2        4801            0.0000000000
     14403      4801  TIP3      H2              4.4494194280        0.6407075841      -14.9766263352  W2        4801            0.0000000000
     14404      4802  TIP3      OH2            13.7582394280        1.6550975841       -2.8140363352  W2        4802            0.0000000000
     14405      4802  TIP3      H1             12.8418194280        1.9172675841       -2.9016663352  W2        4802            0.0000000000
     14406      4802  TIP3      H2             14.0937394280        1.6519975841       -3.7105063352  W2        4802            0.0000000000
     14407      4803  TIP3      OH2            12.3603394280        5.4051975841       -8.7183063352  W2        4803            0.0000000000
     14408      4803  TIP3      H1             11.5627794280        4.9902175841       -9.0468063352  W2        4803            0.0000000000
     14409      4803  TIP3      H2             12.8054494280        4.7145675841       -8.2272563352  W2        4803            0.0000000000
     14410      4804  TIP3      OH2             1.8179194280       11.3332575841      -16.1478563352  W2        4804            0.0000000000
     14411      4804  TIP3      H1              2.4100694280       12.0327375841      -15.8716163352  W2        4804            0.0000000000
     14412      4804  TIP3      H2              2.2772194280       10.9002075841      -16.8673963352  W2        4804            0.0000000000
     14413      4805  TIP3      OH2             0.1338394280        3.9975575841      -17.0319163352  W2        4805            0.0000000000
     14414      4805  TIP3      H1              0.0890994280        4.9368675841      -16.8532163352  W2        4805            0.0000000000
     14415      4805  TIP3      H2             -0.7538405720        3.7620475841      -17.3017063352  W2        4805            0.0000000000
     14416      4806  TIP3      OH2            13.4467994280       14.6614475841       -7.0959563352  W2        4806            0.0000000000
     14417      4806  TIP3      H1             13.2912294280       15.3398875841       -7.7530263352  W2        4806            0.0000000000
     14418      4806  TIP3      H2             14.3794394280       14.7333775841       -6.8928963352  W2        4806            0.0000000000
     14419      4807  TIP3      OH2             0.9420394280       -1.2207824159       -8.3588163352  W2        4807            0.0000000000
     14420      4807  TIP3      H1              0.7130194280       -1.1615324159       -9.2863163352  W2        4807            0.0000000000
     14421      4807  TIP3      H2              0.4993794280       -2.0122324159       -8.0524063352  W2        4807            0.0000000000
     14422      4808  TIP3      OH2            -0.1276305720       12.7199275841      -12.1982363352  W2        4808            0.0000000000
     14423      4808  TIP3      H1             -0.9597705720       13.1921975841      -12.1710963352  W2        4808            0.0000000000
     14424      4808  TIP3      H2              0.4181994280       13.2296875841      -12.7969263352  W2        4808            0.0000000000
     14425      4809  TIP3      OH2            -0.8392605720       15.3322975841       -0.8684363352  W2        4809            0.0000000000
     14426      4809  TIP3      H1             -0.2990405720       15.1156975841       -0.1085163352  W2        4809            0.0000000000
     14427      4809  TIP3      H2             -1.3204605720       14.5268975841       -1.0581863352  W2        4809            0.0000000000
     14428      4810  TIP3      OH2             3.7580794280       14.2517375841        0.7519836648  W2        4810            0.0000000000
     14429      4810  TIP3      H1              4.5257994280       13.7928175841        1.0929036648  W2        4810            0.0000000000
     14430      4810  TIP3      H2              3.7366994280       14.0257175841       -0.1778963352  W2        4810            0.0000000000
     14431      4811  TIP3      OH2             7.8500394280       13.7597975841      -17.8728363352  W2        4811            0.0000000000
     14432      4811  TIP3      H1              7.2061394280       13.1286575841      -17.5514663352  W2        4811            0.0000000000
     14433      4811  TIP3      H2              8.6118694280       13.2285975841      -18.1044863352  W2        4811            0.0000000000
     14434      4812  TIP3      OH2            10.3349494280       12.6318475841       -0.5188663352  W2        4812            0.0000000000
     14435      4812  TIP3      H1              9.9838994280       11.7751475841       -0.2758263352  W2        4812            0.0000000000
     14436      4812  TIP3      H2             11.0612694280       12.7745175841        0.0880336648  W2        4812            0.0000000000
     14437      4813  TIP3      OH2            12.4543294280       13.5767875841      -17.6390363352  W2        4813            0.0000000000
     14438      4813  TIP3      H1             12.7373694280       12.7823075841      -17.1863463352  W2        4813            0.0000000000
     14439      4813  TIP3      H2             13.1941194280       13.8098875841      -18.1999263352  W2        4813            0.0000000000
     14440      4814  TIP3      OH2            -0.9323105720        9.1427075841        0.0859936648  W2        4814            0.0000000000
     14441      4814  TIP3      H1             -0.7882605720        8.2407775841       -0.2003363352  W2        4814            0.0000000000
     14442      4814  TIP3      H2             -1.7045705720        9.4289175841       -0.4017763352  W2        4814            0.0000000000
     14443      4815  TIP3      OH2             3.4090594280        9.4862775841      -17.7815463352  W2        4815            0.0000000000
     14444      4815  TIP3      H1              3.4734694280        8.6922375841      -17.2509063352  W2        4815            0.0000000000
     14445      4815  TIP3      H2              4.0619794280        9.3675575841      -18.4713463352  W2        4815            0.0000000000
     14446      4816  TIP3      OH2             5.7232994280        9.1125175841       -0.4813663352  W2        4816            0.0000000000
     14447      4816  TIP3      H1              5.3946794280        9.3833275841       -1.3386263352  W2        4816            0.0000000000
     14448      4816  TIP3      H2              5.8751194280        8.1714975841       -0.5688663352  W2        4816            0.0000000000
     14449      4817  TIP3      OH2             8.7613994280       10.5334475841      -18.0457463352  W2        4817            0.0000000000
     14450      4817  TIP3      H1              8.4928094280       10.7136575841      -17.1448563352  W2        4817            0.0000000000
     14451      4817  TIP3      H2              8.5549594280        9.6080675841      -18.1771663352  W2        4817            0.0000000000
     14452      4818  TIP3      OH2            11.4578194280        9.0282475841       -3.0981363352  W2        4818            0.0000000000
     14453      4818  TIP3      H1             12.2032994280        9.6166175841       -3.2177363352  W2        4818            0.0000000000
     14454      4818  TIP3      H2             10.7004994280        9.6102175841       -3.0348263352  W2        4818            0.0000000000
     14455      4819  TIP3      OH2            -0.0996605720        6.3430375841       -0.4940763352  W2        4819            0.0000000000
     14456      4819  TIP3      H1              0.3084594280        5.4856975841       -0.6150163352  W2        4819            0.0000000000
     14457      4819  TIP3      H2             -0.3599005720        6.3571675841        0.4269536648  W2        4819            0.0000000000
     14458      4820  TIP3      OH2             4.5584394280        7.4588975841      -15.4757463352  W2        4820            0.0000000000
     14459      4820  TIP3      H1              4.0986394280        6.9747275841      -14.7898963352  W2        4820            0.0000000000
     14460      4820  TIP3      H2              4.8133094280        6.7904375841      -16.1116963352  W2        4820            0.0000000000
     14461      4821  TIP3      OH2             3.8473694280        5.3516075841       -3.1197863352  W2        4821            0.0000000000
     14462      4821  TIP3      H1              3.2289794280        6.0262675841       -2.8393163352  W2        4821            0.0000000000
     14463      4821  TIP3      H2              4.1914894280        5.6729975841       -3.9531663352  W2        4821            0.0000000000
     14464      4822  TIP3      OH2             5.6294794280        5.7020775841      -17.2134263352  W2        4822            0.0000000000
     14465      4822  TIP3      H1              5.4489794280        5.5471975841      -18.1405963352  W2        4822            0.0000000000
     14466      4822  TIP3      H2              6.5795294280        5.8099475841      -17.1686363352  W2        4822            0.0000000000
     14467      4823  TIP3      OH2             8.8671894280        7.8231375841        0.1576936648  W2        4823            0.0000000000
     14468      4823  TIP3      H1              9.8203094280        7.9070475841        0.1302936648  W2        4823            0.0000000000
     14469      4823  TIP3      H2              8.7066494280        7.1113175841        0.7771836648  W2        4823            0.0000000000
     14470      4824  TIP3      OH2            15.0193094280        8.0564975841      -17.7676163352  W2        4824            0.0000000000
     14471      4824  TIP3      H1             14.7457894280        7.6320475841      -18.5807863352  W2        4824            0.0000000000
     14472      4824  TIP3      H2             15.0587194280        8.9879475841      -17.9845763352  W2        4824            0.0000000000
     14473      4825  TIP3      OH2             4.1867394280        2.7066875841       -2.0374763352  W2        4825            0.0000000000
     14474      4825  TIP3      H1              4.3368294280        1.9778175841       -2.6395063352  W2        4825            0.0000000000
     14475      4825  TIP3      H2              4.1889794280        3.4838575841       -2.5962563352  W2        4825            0.0000000000
     14476      4826  TIP3      OH2             4.5993094280        1.0762675841       -4.5447363352  W2        4826            0.0000000000
     14477      4826  TIP3      H1              5.1350594280        1.5279375841       -5.1968063352  W2        4826            0.0000000000
     14478      4826  TIP3      H2              3.7472694280        0.9682475841       -4.9673263352  W2        4826            0.0000000000
     14479      4827  TIP3      OH2             6.1811494280        6.5158875841       -4.3052163352  W2        4827            0.0000000000
     14480      4827  TIP3      H1              6.9316294280        6.3596375841       -4.8784363352  W2        4827            0.0000000000
     14481      4827  TIP3      H2              5.8419794280        7.3675475841       -4.5806663352  W2        4827            0.0000000000
     14482      4828  TIP3      OH2            10.5967694280        4.3310675841        0.7233136648  W2        4828            0.0000000000
     14483      4828  TIP3      H1             10.7888994280        3.4000075841        0.6117636648  W2        4828            0.0000000000
     14484      4828  TIP3      H2             11.4543994280        4.7560175841        0.7128536648  W2        4828            0.0000000000
     14485      4829  TIP3      OH2            11.9134894280        7.1195875841       -1.1994163352  W2        4829            0.0000000000
     14486      4829  TIP3      H1             11.6319894280        7.8290475841       -1.7770363352  W2        4829            0.0000000000
     14487      4829  TIP3      H2             12.8559194280        7.0468875841       -1.3502963352  W2        4829            0.0000000000
     14488      4830  TIP3      OH2             2.6653694280        3.9050375841       -0.1259163352  W2        4830            0.0000000000
     14489      4830  TIP3      H1              1.8982694280        3.3725175841       -0.3361563352  W2        4830            0.0000000000
     14490      4830  TIP3      H2              3.3442694280        3.5950775841       -0.7252863352  W2        4830            0.0000000000
     14491      4831  TIP3      OH2             5.4048594280       -1.4671624159       -4.1133763352  W2        4831            0.0000000000
     14492      4831  TIP3      H1              5.3068194280       -0.5208424159       -4.2187563352  W2        4831            0.0000000000
     14493      4831  TIP3      H2              4.6624794280       -1.8397824159       -4.5890263352  W2        4831            0.0000000000
     14494      4832  TIP3      OH2             6.6689094280        2.8543775841       -0.5495363352  W2        4832            0.0000000000
     14495      4832  TIP3      H1              6.4334494280        2.6350475841        0.3519536648  W2        4832            0.0000000000
     14496      4832  TIP3      H2              5.8855994280        2.6474975841       -1.0592863352  W2        4832            0.0000000000
     14497      4833  TIP3      OH2             9.3845694280        1.9817275841       -1.4741863352  W2        4833            0.0000000000
     14498      4833  TIP3      H1              8.4371094280        2.0136975841       -1.3418563352  W2        4833            0.0000000000
     14499      4833  TIP3      H2              9.6972394280        1.3564375841       -0.8203663352  W2        4833            0.0000000000
     14500      4834  TIP3      OH2            11.0187194280        0.6158375841        0.5310036648  W2        4834            0.0000000000
     14501      4834  TIP3      H1             10.9218994280       -0.3364324159        0.5251936648  W2        4834            0.0000000000
     14502      4834  TIP3      H2             10.6970294280        0.8845175841        1.3915536648  W2        4834            0.0000000000
     14503      4835  TIP3      OH2             0.8456494280        1.8254175841       -0.4214463352  W2        4835            0.0000000000
     14504      4835  TIP3      H1              1.0573894280        1.1190275841       -1.0316963352  W2        4835            0.0000000000
     14505      4835  TIP3      H2              0.7343994280        1.3880175841        0.4226736648  W2        4835            0.0000000000
     14506      4836  TIP3      OH2             5.6266694280       -2.1734224159       -1.4420963352  W2        4836            0.0000000000
     14507      4836  TIP3      H1              6.3385094280       -2.8132024159       -1.4561863352  W2        4836            0.0000000000
     14508      4836  TIP3      H2              5.5257094280       -1.9065924159       -2.3557863352  W2        4836            0.0000000000
     14509      4837  TIP3      OH2             5.9804194280       -0.4905824159        0.6115336648  W2        4837            0.0000000000
     14510      4837  TIP3      H1              5.8486394280       -0.9662024159       -0.2086163352  W2        4837            0.0000000000
     14511      4837  TIP3      H2              5.3811594280        0.2537775841        0.5562436648  W2        4837            0.0000000000
     14512      4838  TIP3      OH2             5.5266494280       16.3924475841      -16.2120663352  W2        4838            0.0000000000
     14513      4838  TIP3      H1              6.4597194280       16.5503175841      -16.0682263352  W2        4838            0.0000000000
     14514      4838  TIP3      H2              5.2625294280       17.0677475841      -16.8369163352  W2        4838            0.0000000000
     14515      4839  TIP3      OH2            -0.9048605720       11.0288275841      -16.7292563352  W2        4839            0.0000000000
     14516      4839  TIP3      H1              0.0090594280       11.1077175841      -16.4558663352  W2        4839            0.0000000000
     14517      4839  TIP3      H2             -0.8975505720       10.3417875841      -17.3956963352  W2        4839            0.0000000000
     14518      4840  TIP3      OH2            -2.2558005720       16.4216775841      -11.6518663352  W2        4840            0.0000000000
     14519      4840  TIP3      H1             -2.9030905720       15.9598475841      -12.1847463352  W2        4840            0.0000000000
     14520      4840  TIP3      H2             -1.9013405720       15.7500075841      -11.0692463352  W2        4840            0.0000000000
     14521      4841  TIP3      OH2            -1.3858805720       14.5023775841       -9.8472463352  W2        4841            0.0000000000
     14522      4841  TIP3      H1             -1.7202005720       13.6221075841       -9.6752263352  W2        4841            0.0000000000
     14523      4841  TIP3      H2             -1.1636405720       14.8478775841       -8.9826863352  W2        4841            0.0000000000
     14524      4842  TIP3      OH2            16.1625994280       15.3120175841       -6.8667663352  W2        4842            0.0000000000
     14525      4842  TIP3      H1             16.1412694280       15.4968575841       -5.9278263352  W2        4842            0.0000000000
     14526      4842  TIP3      H2             16.8532194280       15.8804175841       -7.2076263352  W2        4842            0.0000000000
     14527      4843  TIP3      OH2            15.7258894280       14.8791275841       -3.9448563352  W2        4843            0.0000000000
     14528      4843  TIP3      H1             15.2387594280       14.1435375841       -4.3161163352  W2        4843            0.0000000000
     14529      4843  TIP3      H2             16.2751594280       14.4855175841       -3.2669163352  W2        4843            0.0000000000
     14530      4844  TIP3      OH2            14.1766194280       10.6689375841        0.6931736648  W2        4844            0.0000000000
     14531      4844  TIP3      H1             13.3107294280       10.5639075841        1.0874036648  W2        4844            0.0000000000
     14532      4844  TIP3      H2             14.5532094280       11.4272675841        1.1396436648  W2        4844            0.0000000000
     14533      4845  TIP3      OH2            15.4775894280        8.9253075841      -13.7925763352  W2        4845            0.0000000000
     14534      4845  TIP3      H1             16.3277294280        9.3463975841      -13.6654163352  W2        4845            0.0000000000
     14535      4845  TIP3      H2             15.4830994280        8.1853175841      -13.1854363352  W2        4845            0.0000000000
     14536      4846  TIP3      OH2            15.8721494280        6.9790475841      -11.9690063352  W2        4846            0.0000000000
     14537      4846  TIP3      H1             15.1456094280        6.4993075841      -11.5712463352  W2        4846            0.0000000000
     14538      4846  TIP3      H2             16.4534794280        7.1845175841      -11.2368463352  W2        4846            0.0000000000
     14539      4847  TIP3      OH2            15.6312694280        9.7637975841       -7.0212463352  W2        4847            0.0000000000
     14540      4847  TIP3      H1             16.4646894280        9.3857975841       -7.3018863352  W2        4847            0.0000000000
     14541      4847  TIP3      H2             15.7432994280       10.7069175841       -7.1403363352  W2        4847            0.0000000000
     14542      4848  TIP3      OH2            14.1174994280       12.6415475841       -4.7144063352  W2        4848            0.0000000000
     14543      4848  TIP3      H1             13.4700294280       12.9666975841       -4.0888863352  W2        4848            0.0000000000
     14544      4848  TIP3      H2             13.5998994280       12.2013175841       -5.3885763352  W2        4848            0.0000000000
     14545      4849  TIP3      OH2            16.1404594280        6.8798975841      -15.5778763352  W2        4849            0.0000000000
     14546      4849  TIP3      H1             15.6185694280        7.2363075841      -16.2967863352  W2        4849            0.0000000000
     14547      4849  TIP3      H2             16.1073794280        7.5546775841      -14.8997863352  W2        4849            0.0000000000
     14548      4850  TIP3      OH2            14.4893594280        4.1194575841      -17.0271663352  W2        4850            0.0000000000
     14549      4850  TIP3      H1             14.5857994280        4.7861575841      -17.7071963352  W2        4850            0.0000000000
     14550      4850  TIP3      H2             14.3493194280        3.3040875841      -17.5086163352  W2        4850            0.0000000000
     14551      4851  TIP3      OH2            13.6588294280        5.4996975841      -11.4061363352  W2        4851            0.0000000000
     14552      4851  TIP3      H1             13.5087094280        4.5545575841      -11.4263563352  W2        4851            0.0000000000
     14553      4851  TIP3      H2             13.3052794280        5.7808375841      -10.5622263352  W2        4851            0.0000000000
     14554      4852  TIP3      OH2            -1.3059305720        7.5779175841       -7.3957563352  W2        4852            0.0000000000
     14555      4852  TIP3      H1             -1.1216405720        7.4960875841       -8.3314663352  W2        4852            0.0000000000
     14556      4852  TIP3      H2             -0.4566405720        7.4536175841       -6.9721163352  W2        4852            0.0000000000
     14557      4853  TIP3      OH2            14.5151194280        7.4700275841       -1.7673063352  W2        4853            0.0000000000
     14558      4853  TIP3      H1             15.0978494280        6.7352575841       -1.5755863352  W2        4853            0.0000000000
     14559      4853  TIP3      H2             15.0790494280        8.2420575841       -1.7207263352  W2        4853            0.0000000000
     14560      4854  TIP3      OH2            16.0118294280        5.3726075841       -1.0827663352  W2        4854            0.0000000000
     14561      4854  TIP3      H1             15.1484994280        4.9938175841       -1.2482963352  W2        4854            0.0000000000
     14562      4854  TIP3      H2             16.6161994280        4.6340875841       -1.1571863352  W2        4854            0.0000000000
     14563      4855  TIP3      OH2            13.7367394280        1.5274375841      -17.9096163352  W2        4855            0.0000000000
     14564      4855  TIP3      H1             14.3473194280        1.1561175841      -17.2727963352  W2        4855            0.0000000000
     14565      4855  TIP3      H2             12.8998894280        1.1061275841      -17.7136163352  W2        4855            0.0000000000
     14566      4856  TIP3      OH2            13.3693094280        3.0822775841      -12.9436263352  W2        4856            0.0000000000
     14567      4856  TIP3      H1             13.6490194280        2.1753175841      -12.8194563352  W2        4856            0.0000000000
     14568      4856  TIP3      H2             14.1284794280        3.5164275841      -13.3327063352  W2        4856            0.0000000000
     14569      4857  TIP3      OH2            13.9811394280        3.6640175841       -7.5077363352  W2        4857            0.0000000000
     14570      4857  TIP3      H1             14.9139394280        3.8760075841       -7.5421363352  W2        4857            0.0000000000
     14571      4857  TIP3      H2             13.7458894280        3.7652275841       -6.5854363352  W2        4857            0.0000000000
     14572      4858  TIP3      OH2            14.0103294280        4.4005475841       -4.7317963352  W2        4858            0.0000000000
     14573      4858  TIP3      H1             13.1674594280        4.6685875841       -4.3658163352  W2        4858            0.0000000000
     14574      4858  TIP3      H2             14.4527594280        5.2227375841       -4.9426863352  W2        4858            0.0000000000
     14575      4859  TIP3      OH2            -1.7084505720        2.8484175841       -1.2548763352  W2        4859            0.0000000000
     14576      4859  TIP3      H1             -0.7889605720        2.7262475841       -1.0185663352  W2        4859            0.0000000000
     14577      4859  TIP3      H2             -2.1580005720        2.0983875841       -0.8655263352  W2        4859            0.0000000000
     14578      4860  TIP3      OH2            16.2934894280       -1.6194324159        0.6217036648  W2        4860            0.0000000000
     14579      4860  TIP3      H1             16.6431894280       -2.2730824159        0.0161736648  W2        4860            0.0000000000
     14580      4860  TIP3      H2             16.4404394280       -0.7820224159        0.1819636648  W2        4860            0.0000000000
     14581      4861  TIP3      OH2            13.9827894280        0.3452075841      -12.8954263352  W2        4861            0.0000000000
     14582      4861  TIP3      H1             14.1652894280       -0.1036424159      -12.0699263352  W2        4861            0.0000000000
     14583      4861  TIP3      H2             13.3830794280       -0.2393524159      -13.3589663352  W2        4861            0.0000000000
     14584      4862  TIP3      OH2            -0.4872005720        1.1605775841       -8.3635863352  W2        4862            0.0000000000
     14585      4862  TIP3      H1             -0.0420405720        0.3688275841       -8.0616163352  W2        4862            0.0000000000
     14586      4862  TIP3      H2             -0.0209005720        1.8770975841       -7.9330263352  W2        4862            0.0000000000
     14587      4863  TIP3      OH2            -2.1831705720        4.1598775841       -7.2945663352  W2        4863            0.0000000000
     14588      4863  TIP3      H1             -1.6911905720        3.9389275841       -8.0853663352  W2        4863            0.0000000000
     14589      4863  TIP3      H2             -1.8210805720        5.0002175841       -7.0136163352  W2        4863            0.0000000000
     14590      4864  TIP3      OH2            15.8132094280        0.4900275841       -1.0291663352  W2        4864            0.0000000000
     14591      4864  TIP3      H1             14.8957794280        0.7607375841       -1.0648163352  W2        4864            0.0000000000
     14592      4864  TIP3      H2             15.9361494280       -0.0451324159       -1.8131963352  W2        4864            0.0000000000
     14593      4865  TIP3      OH2            15.8494094280        0.4130175841      -16.3673963352  W2        4865            0.0000000000
     14594      4865  TIP3      H1             16.2616694280       -0.3084124159      -16.8425963352  W2        4865            0.0000000000
     14595      4865  TIP3      H2             16.5310594280        1.0824775841      -16.3089663352  W2        4865            0.0000000000
     14596      4866  TIP3      OH2            -1.8695205720        0.4177875841      -13.2403263352  W2        4866            0.0000000000
     14597      4866  TIP3      H1             -2.7946805720        0.6264475841      -13.3697763352  W2        4866            0.0000000000
     14598      4866  TIP3      H2             -1.4155305720        0.9018675841      -13.9300963352  W2        4866            0.0000000000
     14599      4867  TIP3      OH2            12.9011994280       15.4019575841      -11.2945863352  W2        4867            0.0000000000
     14600      4867  TIP3      H1             13.5534894280       15.0541675841      -11.9026763352  W2        4867            0.0000000000
     14601      4867  TIP3      H2             13.4115794280       15.8902775841      -10.6486163352  W2        4867            0.0000000000
     14602      4868  TIP3      OH2            -1.9059805720       -0.8443124159       -4.8960763352  W2        4868            0.0000000000
     14603      4868  TIP3      H1             -2.5709305720       -1.0902824159       -4.2529863352  W2        4868            0.0000000000
     14604      4868  TIP3      H2             -2.3488505720       -0.2222724159       -5.4732763352  W2        4868            0.0000000000
     14605      4869  TIP3      OH2             0.2859494280       12.3310975841       -0.7514963352  W2        4869            0.0000000000
     14606      4869  TIP3      H1             -0.5348005720       12.5057475841       -1.2120263352  W2        4869            0.0000000000
     14607      4869  TIP3      H2              0.0337294280       12.2575675841        0.1689436648  W2        4869            0.0000000000
     14608      4870  TIP3      OH2             3.2402394280       13.3052175841       -4.4930963352  W2        4870            0.0000000000
     14609      4870  TIP3      H1              2.8153494280       14.1150675841       -4.7756363352  W2        4870            0.0000000000
     14610      4870  TIP3      H2              4.1445194280       13.3906275841       -4.7951163352  W2        4870            0.0000000000
     14611      4871  TIP3      OH2             7.5513794280       14.7042175841       -1.5337263352  W2        4871            0.0000000000
     14612      4871  TIP3      H1              7.7361294280       14.3708275841       -0.6556963352  W2        4871            0.0000000000
     14613      4871  TIP3      H2              8.3978294280       15.0140775841       -1.8558063352  W2        4871            0.0000000000
     14614      4872  TIP3      OH2             9.8964194280       15.9901075841       -2.2895863352  W2        4872            0.0000000000
     14615      4872  TIP3      H1             10.5733094280       15.3573375841       -2.5296663352  W2        4872            0.0000000000
     14616      4872  TIP3      H2             10.2182994280       16.3911575841       -1.4822563352  W2        4872            0.0000000000
     14617      4873  TIP3      OH2            14.8137994280       -1.4203424159       -3.2100863352  W2        4873            0.0000000000
     14618      4873  TIP3      H1             14.0011494280       -1.0953124159       -3.5976163352  W2        4873            0.0000000000
     14619      4873  TIP3      H2             15.0466494280       -2.1804924159       -3.7431763352  W2        4873            0.0000000000
     14620      4874  TIP3      OH2             0.6419094280       16.5616075841       -4.4455663352  W2        4874            0.0000000000
     14621      4874  TIP3      H1             -0.0784505720       17.0017075841       -4.8967963352  W2        4874            0.0000000000
     14622      4874  TIP3      H2              0.2763094280       16.3110775841       -3.5971663352  W2        4874            0.0000000000
     14623      4875  TIP3      OH2             3.1091694280       16.1619975841       -5.4158463352  W2        4875            0.0000000000
     14624      4875  TIP3      H1              2.2443894280       16.2338475841       -5.0118363352  W2        4875            0.0000000000
     14625      4875  TIP3      H2              3.0540694280       16.7087275841       -6.1995963352  W2        4875            0.0000000000
     14626      4876  TIP3      OH2             7.8197294280       16.0498875841       -6.2402463352  W2        4876            0.0000000000
     14627      4876  TIP3      H1              7.3631294280       16.5788575841       -6.8944063352  W2        4876            0.0000000000
     14628      4876  TIP3      H2              7.9825294280       16.6530275841       -5.5150163352  W2        4876            0.0000000000
     14629      4877  TIP3      OH2            10.1473594280       14.9278475841       -5.2952163352  W2        4877            0.0000000000
     14630      4877  TIP3      H1              9.2427294280       15.0928675841       -5.5610063352  W2        4877            0.0000000000
     14631      4877  TIP3      H2             10.5762194280       15.7810675841       -5.3608763352  W2        4877            0.0000000000
     14632      4878  TIP3      OH2            12.7515494280       16.4977575841       -5.0004363352  W2        4878            0.0000000000
     14633      4878  TIP3      H1             12.5697494280       17.4136475841       -5.2109463352  W2        4878            0.0000000000
     14634      4878  TIP3      H2             12.9283294280       16.0874675841       -5.8469763352  W2        4878            0.0000000000
     14635      4879  TIP3      OH2             0.0567194280       15.1848575841       -7.5353863352  W2        4879            0.0000000000
     14636      4879  TIP3      H1              0.0383194280       14.7593675841       -6.6781563352  W2        4879            0.0000000000
     14637      4879  TIP3      H2              0.8615094280       14.8663575841       -7.9441663352  W2        4879            0.0000000000
     14638      4880  TIP3      OH2             2.1980294280       13.8947275841       -8.8803963352  W2        4880            0.0000000000
     14639      4880  TIP3      H1              1.9790994280       12.9784675841       -8.7107963352  W2        4880            0.0000000000
     14640      4880  TIP3      H2              3.0222494280       14.0347675841       -8.4142563352  W2        4880            0.0000000000
     14641      4881  TIP3      OH2             4.7352794280       14.3646575841       -8.0315963352  W2        4881            0.0000000000
     14642      4881  TIP3      H1              4.9478494280       13.4765575841       -8.3185063352  W2        4881            0.0000000000
     14643      4881  TIP3      H2              4.7997894280       14.3304275841       -7.0771963352  W2        4881            0.0000000000
     14644      4882  TIP3      OH2             8.2436494280        0.0287175841       -8.8872663352  W2        4882            0.0000000000
     14645      4882  TIP3      H1              7.5693294280       -0.6007224159       -8.6316863352  W2        4882            0.0000000000
     14646      4882  TIP3      H2              8.8075694280       -0.4553924159       -9.4904763352  W2        4882            0.0000000000
     14647      4883  TIP3      OH2            13.3863694280       -1.8638824159       -8.7745563352  W2        4883            0.0000000000
     14648      4883  TIP3      H1             13.9901294280       -1.3163424159       -9.2764563352  W2        4883            0.0000000000
     14649      4883  TIP3      H2             12.5165694280       -1.5448424159       -9.0151463352  W2        4883            0.0000000000
     14650      4884  TIP3      OH2            15.1134094280       -0.7250124159      -10.4414663352  W2        4884            0.0000000000
     14651      4884  TIP3      H1             15.7251594280       -1.2394424159      -10.9681063352  W2        4884            0.0000000000
     14652      4884  TIP3      H2             15.4957494280        0.1521975841      -10.4180263352  W2        4884            0.0000000000
     14653      4885  TIP3      OH2             0.5703994280       -1.3372524159      -11.0652763352  W2        4885            0.0000000000
     14654      4885  TIP3      H1             -0.2066205720       -1.5717624159      -11.5726863352  W2        4885            0.0000000000
     14655      4885  TIP3      H2              1.1007594280       -2.1340424159      -11.0564763352  W2        4885            0.0000000000
     14656      4886  TIP3      OH2            -0.5932605720       -1.5394424159      -15.2616663352  W2        4886            0.0000000000
     14657      4886  TIP3      H1             -0.1541905720       -0.9283924159      -15.8533163352  W2        4886            0.0000000000
     14658      4886  TIP3      H2             -1.2270205720       -1.0010324159      -14.7876663352  W2        4886            0.0000000000
     14659      4887  TIP3      OH2             5.1496594280       -1.4105424159      -11.2519663352  W2        4887            0.0000000000
     14660      4887  TIP3      H1              6.0239994280       -1.0221124159      -11.2815363352  W2        4887            0.0000000000
     14661      4887  TIP3      H2              5.0137394280       -1.6257624159      -10.3292463352  W2        4887            0.0000000000
     14662      4888  TIP3      OH2            10.7064994280       -1.3805624159       -9.6027963352  W2        4888            0.0000000000
     14663      4888  TIP3      H1             10.7826594280       -1.2854024159      -10.5521963352  W2        4888            0.0000000000
     14664      4888  TIP3      H2             10.4314194280       -2.2882724159       -9.4738863352  W2        4888            0.0000000000
     14665      4889  TIP3      OH2            12.0597594280       -1.3547824159      -13.9102963352  W2        4889            0.0000000000
     14666      4889  TIP3      H1             11.3568694280       -0.7398624159      -14.1201563352  W2        4889            0.0000000000
     14667      4889  TIP3      H2             11.6148994280       -2.1921124159      -13.7792063352  W2        4889            0.0000000000
     14668      4890  TIP3      OH2            -0.6923105720       14.4087775841      -14.3641563352  W2        4890            0.0000000000
     14669      4890  TIP3      H1             -1.3773205720       14.3706675841      -15.0316463352  W2        4890            0.0000000000
     14670      4890  TIP3      H2             -0.6885905720       15.3215375841      -14.0759463352  W2        4890            0.0000000000
     14671      4891  TIP3      OH2             1.2676494280        0.3767075841      -16.8192563352  W2        4891            0.0000000000
     14672      4891  TIP3      H1              1.7589894280       -0.2530524159      -17.3467063352  W2        4891            0.0000000000
     14673      4891  TIP3      H2              1.8912794280        0.6726475841      -16.1561363352  W2        4891            0.0000000000
     14674      4892  TIP3      OH2             6.2936594280        0.6698575841      -14.3622063352  W2        4892            0.0000000000
     14675      4892  TIP3      H1              6.4717894280        0.0231775841      -13.6793463352  W2        4892            0.0000000000
     14676      4892  TIP3      H2              6.2402794280        1.5036275841      -13.8950963352  W2        4892            0.0000000000
     14677      4893  TIP3      OH2             8.1720394280       15.6182675841      -15.9665363352  W2        4893            0.0000000000
     14678      4893  TIP3      H1              9.0380594280       15.9850075841      -16.1447163352  W2        4893            0.0000000000
     14679      4893  TIP3      H2              7.9253194280       15.1790675841      -16.7804563352  W2        4893            0.0000000000
     14680      4894  TIP3      OH2            14.8809994280       15.1812975841      -13.2874263352  W2        4894            0.0000000000
     14681      4894  TIP3      H1             14.6867094280       14.4335075841      -13.8524663352  W2        4894            0.0000000000
     14682      4894  TIP3      H2             14.8420094280       15.9393075841      -13.8706363352  W2        4894            0.0000000000
     14683      4895  TIP3      OH2             0.5281994280       -0.8230624159       -1.5476563352  W2        4895            0.0000000000
     14684      4895  TIP3      H1              0.1620194280       -1.5888024159       -1.1051863352  W2        4895            0.0000000000
     14685      4895  TIP3      H2              1.4410494280       -0.7940424159       -1.2611463352  W2        4895            0.0000000000
     14686      4896  TIP3      OH2             2.5012794280       -1.4726224159       -0.0119463352  W2        4896            0.0000000000
     14687      4896  TIP3      H1              3.3996394280       -1.7466024159       -0.1966063352  W2        4896            0.0000000000
     14688      4896  TIP3      H2              2.1145894280       -2.2150224159        0.4523136648  W2        4896            0.0000000000
     14689      4897  TIP3      OH2             1.1258094280       15.3288575841      -17.3389463352  W2        4897            0.0000000000
     14690      4897  TIP3      H1              0.8582694280       15.6151475841      -16.4656363352  W2        4897            0.0000000000
     14691      4897  TIP3      H2              1.8970694280       14.7827775841      -17.1866963352  W2        4897            0.0000000000
     14692      4898  TIP3      OH2            10.9225094280       -2.1400924159        0.1703336648  W2        4898            0.0000000000
     14693      4898  TIP3      H1             10.9992294280       -2.5660224159        1.0241036648  W2        4898            0.0000000000
     14694      4898  TIP3      H2             11.8161694280       -2.1266224159       -0.1723163352  W2        4898            0.0000000000
     14695      4899  TIP3      OH2            14.0986194280       13.9325375841       -1.1372463352  W2        4899            0.0000000000
     14696      4899  TIP3      H1             13.3168094280       13.7463375841       -1.6571863352  W2        4899            0.0000000000
     14697      4899  TIP3      H2             14.0266094280       14.8619675841       -0.9199963352  W2        4899            0.0000000000
     14698      4900  TIP3      OH2            28.5046594280        7.8189775841      -11.1065263352  W2        4900            0.0000000000
     14699      4900  TIP3      H1             28.5937694280        8.7627975841      -11.2388163352  W2        4900            0.0000000000
     14700      4900  TIP3      H2             27.8664194280        7.5436175841      -11.7645863352  W2        4900            0.0000000000
     14701      4901  TIP3      OH2            27.4377894280        7.0740475841       -7.6877063352  W2        4901            0.0000000000
     14702      4901  TIP3      H1             27.3995394280        6.4276775841       -6.9827463352  W2        4901            0.0000000000
     14703      4901  TIP3      H2             27.1154394280        6.6074875841       -8.4588363352  W2        4901            0.0000000000
     14704      4902  TIP3      OH2            19.8062894280        6.6882575841       -6.0947163352  W2        4902            0.0000000000
     14705      4902  TIP3      H1             19.8474994280        6.0625875841       -5.3714763352  W2        4902            0.0000000000
     14706      4902  TIP3      H2             20.5090594280        7.3121175841       -5.9126763352  W2        4902            0.0000000000
     14707      4903  TIP3      OH2            31.1438094280       10.0130875841       -9.3861963352  W2        4903            0.0000000000
     14708      4903  TIP3      H1             30.7030794280        9.2926875841       -8.9356363352  W2        4903            0.0000000000
     14709      4903  TIP3      H2             31.1307794280       10.7338075841       -8.7564263352  W2        4903            0.0000000000
     14710      4904  TIP3      OH2            20.7295994280       11.1381475841       -7.5598063352  W2        4904            0.0000000000
     14711      4904  TIP3      H1             20.3601194280       10.3361975841       -7.9293763352  W2        4904            0.0000000000
     14712      4904  TIP3      H2             21.6707094280       10.9696375841       -7.5134663352  W2        4904            0.0000000000
     14713      4905  TIP3      OH2            17.3396494280        4.7984075841      -12.1669263352  W2        4905            0.0000000000
     14714      4905  TIP3      H1             16.8919894280        5.6442775841      -12.1852763352  W2        4905            0.0000000000
     14715      4905  TIP3      H2             16.7787694280        4.2188275841      -12.6824163352  W2        4905            0.0000000000
     14716      4906  TIP3      OH2            18.0502594280        6.9603675841      -10.0411263352  W2        4906            0.0000000000
     14717      4906  TIP3      H1             18.2636094280        6.1905275841       -9.5138263352  W2        4906            0.0000000000
     14718      4906  TIP3      H2             18.7880194280        7.0500375841      -10.6443663352  W2        4906            0.0000000000
     14719      4907  TIP3      OH2            28.2553594280       15.1172575841       -9.1741563352  W2        4907            0.0000000000
     14720      4907  TIP3      H1             28.8749994280       14.4407275841       -9.4472363352  W2        4907            0.0000000000
     14721      4907  TIP3      H2             28.0470994280       14.8993375841       -8.2656663352  W2        4907            0.0000000000
     14722      4908  TIP3      OH2            25.8272294280        9.5061875841       -7.2816063352  W2        4908            0.0000000000
     14723      4908  TIP3      H1             26.1310194280        8.8203275841       -7.8761963352  W2        4908            0.0000000000
     14724      4908  TIP3      H2             26.5486294280        9.6250575841       -6.6638063352  W2        4908            0.0000000000
     14725      4909  TIP3      OH2            34.4902094280        1.1077175841       -6.4209863352  W2        4909            0.0000000000
     14726      4909  TIP3      H1             34.5394294280        1.7178375841       -5.6850763352  W2        4909            0.0000000000
     14727      4909  TIP3      H2             34.9157194280        1.5688075841       -7.1438763352  W2        4909            0.0000000000
     14728      4910  TIP3      OH2            28.9679294280        3.9004275841       -6.9541263352  W2        4910            0.0000000000
     14729      4910  TIP3      H1             29.1105194280        2.9541275841       -6.9339663352  W2        4910            0.0000000000
     14730      4910  TIP3      H2             28.8618294280        4.1074075841       -7.8826363352  W2        4910            0.0000000000
     14731      4911  TIP3      OH2            22.1227594280        2.0020675841       -9.6816463352  W2        4911            0.0000000000
     14732      4911  TIP3      H1             22.1658694280        2.8619175841      -10.1000163352  W2        4911            0.0000000000
     14733      4911  TIP3      H2             21.6651694280        1.4495375841      -10.3153263352  W2        4911            0.0000000000
     14734      4912  TIP3      OH2            29.8450294280        2.1326275841      -11.2808163352  W2        4912            0.0000000000
     14735      4912  TIP3      H1             30.4914594280        1.8039475841      -10.6560563352  W2        4912            0.0000000000
     14736      4912  TIP3      H2             30.3549694280        2.6505275841      -11.9036763352  W2        4912            0.0000000000
     14737      4913  TIP3      OH2            18.7429094280        4.3986475841       -8.9195063352  W2        4913            0.0000000000
     14738      4913  TIP3      H1             19.3965694280        3.8488175841       -8.4874963352  W2        4913            0.0000000000
     14739      4913  TIP3      H2             18.7668394280        4.1245475841       -9.8363063352  W2        4913            0.0000000000
     14740      4914  TIP3      OH2            23.8993594280        5.9487775841       -9.7043563352  W2        4914            0.0000000000
     14741      4914  TIP3      H1             24.5154594280        5.4223175841       -9.1949563352  W2        4914            0.0000000000
     14742      4914  TIP3      H2             23.3132394280        5.3086475841      -10.1079963352  W2        4914            0.0000000000
     14743      4915  TIP3      OH2            34.8816694280        2.5856375841       -4.1850063352  W2        4915            0.0000000000
     14744      4915  TIP3      H1             34.1931294280        3.2437075841       -4.2803463352  W2        4915            0.0000000000
     14745      4915  TIP3      H2             34.8971294280        2.3884275841       -3.2484663352  W2        4915            0.0000000000
     14746      4916  TIP3      OH2            20.9329494280        0.9199075841       -5.6075663352  W2        4916            0.0000000000
     14747      4916  TIP3      H1             20.7141194280        1.4499675841       -6.3739663352  W2        4916            0.0000000000
     14748      4916  TIP3      H2             20.2650394280        1.1464575841       -4.9604263352  W2        4916            0.0000000000
     14749      4917  TIP3      OH2            28.3019294280       10.4200175841      -12.0636563352  W2        4917            0.0000000000
     14750      4917  TIP3      H1             28.0064394280       10.0972475841      -12.9149663352  W2        4917            0.0000000000
     14751      4917  TIP3      H2             27.9777094280       11.3196875841      -12.0223963352  W2        4917            0.0000000000
     14752      4918  TIP3      OH2            23.5020894280        8.5954775841       -5.3201963352  W2        4918            0.0000000000
     14753      4918  TIP3      H1             22.7619994280        9.1936275841       -5.2166763352  W2        4918            0.0000000000
     14754      4918  TIP3      H2             24.2160394280        9.1494375841       -5.6358363352  W2        4918            0.0000000000
     14755      4919  TIP3      OH2            31.6088694280        1.4235575841       -9.3002263352  W2        4919            0.0000000000
     14756      4919  TIP3      H1             31.3936694280        0.6578975841       -8.7676263352  W2        4919            0.0000000000
     14757      4919  TIP3      H2             32.2646094280        1.8960175841       -8.7873763352  W2        4919            0.0000000000
     14758      4920  TIP3      OH2            20.5266794280        2.8120875841       -7.6553463352  W2        4920            0.0000000000
     14759      4920  TIP3      H1             21.1403094280        3.4448475841       -7.2821063352  W2        4920            0.0000000000
     14760      4920  TIP3      H2             21.0387494280        2.3395875841       -8.3116563352  W2        4920            0.0000000000
     14761      4921  TIP3      OH2            21.9095194280       10.5597775841       -4.5330463352  W2        4921            0.0000000000
     14762      4921  TIP3      H1             21.9042794280       11.4391275841       -4.9111163352  W2        4921            0.0000000000
     14763      4921  TIP3      H2             21.0559294280       10.4761875841       -4.1080563352  W2        4921            0.0000000000
     14764      4922  TIP3      OH2            18.0306094280       10.2305675841      -13.7511163352  W2        4922            0.0000000000
     14765      4922  TIP3      H1             17.7586994280       10.4596675841      -14.6398263352  W2        4922            0.0000000000
     14766      4922  TIP3      H2             18.0761794280       11.0684475841      -13.2905863352  W2        4922            0.0000000000
     14767      4923  TIP3      OH2            31.6555794280       11.8521575841       -7.0382663352  W2        4923            0.0000000000
     14768      4923  TIP3      H1             30.7139494280       11.9105475841       -6.8765763352  W2        4923            0.0000000000
     14769      4923  TIP3      H2             31.9321894280       12.7582075841       -7.1752963352  W2        4923            0.0000000000
     14770      4924  TIP3      OH2            31.9562794280        0.1386875841       -5.6208763352  W2        4924            0.0000000000
     14771      4924  TIP3      H1             31.2201994280        0.7493975841       -5.6587463352  W2        4924            0.0000000000
     14772      4924  TIP3      H2             32.6396794280        0.5535875841       -6.1472363352  W2        4924            0.0000000000
     14773      4925  TIP3      OH2            24.9594194280       -1.7745824159       -8.1550763352  W2        4925            0.0000000000
     14774      4925  TIP3      H1             24.8418394280       -2.7229824159       -8.2092463352  W2        4925            0.0000000000
     14775      4925  TIP3      H2             24.1044294280       -1.4419724159       -7.8819663352  W2        4925            0.0000000000
     14776      4926  TIP3      OH2            29.9076994280       13.6335075841      -10.4131063352  W2        4926            0.0000000000
     14777      4926  TIP3      H1             30.3329294280       12.9262975841      -10.8981463352  W2        4926            0.0000000000
     14778      4926  TIP3      H2             30.2246994280       14.4347775841      -10.8298863352  W2        4926            0.0000000000
     14779      4927  TIP3      OH2            31.0673494280       11.5343575841      -11.9044463352  W2        4927            0.0000000000
     14780      4927  TIP3      H1             30.8098294280       10.8443675841      -12.5158563352  W2        4927            0.0000000000
     14781      4927  TIP3      H2             31.1384294280       11.0914775841      -11.0588563352  W2        4927            0.0000000000
     14782      4928  TIP3      OH2            32.7533694280       10.1010275841       -3.4270963352  W2        4928            0.0000000000
     14783      4928  TIP3      H1             32.8929994280        9.5092775841       -4.1663963352  W2        4928            0.0000000000
     14784      4928  TIP3      H2             32.9206494280       10.9736175841       -3.7832163352  W2        4928            0.0000000000
     14785      4929  TIP3      OH2            27.2259094280        7.0629775841      -13.6544963352  W2        4929            0.0000000000
     14786      4929  TIP3      H1             26.5144594280        7.5979475841      -14.0064463352  W2        4929            0.0000000000
     14787      4929  TIP3      H2             27.9168694280        7.1181875841      -14.3146063352  W2        4929            0.0000000000
     14788      4930  TIP3      OH2            27.2798294280        5.5204075841      -16.6159963352  W2        4930            0.0000000000
     14789      4930  TIP3      H1             27.9808194280        5.5430975841      -15.9645963352  W2        4930            0.0000000000
     14790      4930  TIP3      H2             27.5821194280        4.8923775841      -17.2720663352  W2        4930            0.0000000000
     14791      4931  TIP3      OH2            34.5952994280        6.4408275841       -5.3610563352  W2        4931            0.0000000000
     14792      4931  TIP3      H1             33.9427094280        7.1353875841       -5.2719663352  W2        4931            0.0000000000
     14793      4931  TIP3      H2             35.0603294280        6.6509175841       -6.1708963352  W2        4931            0.0000000000
     14794      4932  TIP3      OH2            30.6316794280        7.2723075841      -12.7029063352  W2        4932            0.0000000000
     14795      4932  TIP3      H1             29.8997794280        7.5006775841      -12.1298463352  W2        4932            0.0000000000
     14796      4932  TIP3      H2             31.0788994280        6.5585775841      -12.2481563352  W2        4932            0.0000000000
     14797      4933  TIP3      OH2            30.5290294280        5.4465675841       -3.6352063352  W2        4933            0.0000000000
     14798      4933  TIP3      H1             30.6089394280        6.2100075841       -3.0633563352  W2        4933            0.0000000000
     14799      4933  TIP3      H2             29.9277994280        5.7258075841       -4.3256963352  W2        4933            0.0000000000
     14800      4934  TIP3      OH2            22.2770494280        7.9029275841      -10.8204063352  W2        4934            0.0000000000
     14801      4934  TIP3      H1             21.9465694280        7.5322675841      -11.6387063352  W2        4934            0.0000000000
     14802      4934  TIP3      H2             22.8654594280        7.2323275841      -10.4735763352  W2        4934            0.0000000000
     14803      4935  TIP3      OH2            23.6437994280       11.3309875841       -8.1391863352  W2        4935            0.0000000000
     14804      4935  TIP3      H1             23.5489294280       10.7522975841       -8.8957263352  W2        4935            0.0000000000
     14805      4935  TIP3      H2             24.3731594280       10.9595575841       -7.6429063352  W2        4935            0.0000000000
     14806      4936  TIP3      OH2            22.6435994280        6.6714875841       -7.1869063352  W2        4936            0.0000000000
     14807      4936  TIP3      H1             23.2088494280        6.7929075841       -7.9497863352  W2        4936            0.0000000000
     14808      4936  TIP3      H2             22.9624894280        7.3089875841       -6.5480563352  W2        4936            0.0000000000
     14809      4937  TIP3      OH2            28.9528194280       12.1746775841       -6.4528563352  W2        4937            0.0000000000
     14810      4937  TIP3      H1             28.7124794280       12.8369875841       -5.8049363352  W2        4937            0.0000000000
     14811      4937  TIP3      H2             28.7546394280       11.3401975841       -6.0278963352  W2        4937            0.0000000000
     14812      4938  TIP3      OH2            23.5236694280       11.0707575841       -2.4697163352  W2        4938            0.0000000000
     14813      4938  TIP3      H1             23.2124194280       11.8530775841       -2.0143963352  W2        4938            0.0000000000
     14814      4938  TIP3      H2             22.8736894280       10.9176675841       -3.1555163352  W2        4938            0.0000000000
     14815      4939  TIP3      OH2            29.5026294280        6.4345975841      -15.0177863352  W2        4939            0.0000000000
     14816      4939  TIP3      H1             30.0821794280        6.5846275841      -14.2708963352  W2        4939            0.0000000000
     14817      4939  TIP3      H2             29.9166294280        6.9053375841      -15.7411463352  W2        4939            0.0000000000
     14818      4940  TIP3      OH2            20.4436594280        7.2688675841       -3.2411463352  W2        4940            0.0000000000
     14819      4940  TIP3      H1             20.5139794280        7.9195475841       -2.5426463352  W2        4940            0.0000000000
     14820      4940  TIP3      H2             19.5528794280        7.3716175841       -3.5760563352  W2        4940            0.0000000000
     14821      4941  TIP3      OH2            27.2291194280       13.1714475841      -11.5824763352  W2        4941            0.0000000000
     14822      4941  TIP3      H1             27.7028794280       13.4670775841      -10.8050563352  W2        4941            0.0000000000
     14823      4941  TIP3      H2             26.6660494280       13.9096075841      -11.8155163352  W2        4941            0.0000000000
     14824      4942  TIP3      OH2            21.7632594280       13.1422575841       -1.7063363352  W2        4942            0.0000000000
     14825      4942  TIP3      H1             21.7707894280       13.0062275841       -2.6537863352  W2        4942            0.0000000000
     14826      4942  TIP3      H2             20.8472994280       13.0250675841       -1.4543363352  W2        4942            0.0000000000
     14827      4943  TIP3      OH2            33.2014694280       -1.8153624159      -15.2048163352  W2        4943            0.0000000000
     14828      4943  TIP3      H1             32.3015394280       -1.6764624159      -14.9097563352  W2        4943            0.0000000000
     14829      4943  TIP3      H2             33.4533094280       -0.9839024159      -15.6066463352  W2        4943            0.0000000000
     14830      4944  TIP3      OH2            21.2673194280        6.9723575841      -13.2311263352  W2        4944            0.0000000000
     14831      4944  TIP3      H1             20.9754494280        7.7405275841      -13.7219963352  W2        4944            0.0000000000
     14832      4944  TIP3      H2             20.5928394280        6.3129775841      -13.3939863352  W2        4944            0.0000000000
     14833      4945  TIP3      OH2            34.3906094280       12.5508775841      -16.8284263352  W2        4945            0.0000000000
     14834      4945  TIP3      H1             34.4639594280       13.4898975841      -16.6578963352  W2        4945            0.0000000000
     14835      4945  TIP3      H2             35.2961194280       12.2457375841      -16.8846963352  W2        4945            0.0000000000
     14836      4946  TIP3      OH2            17.3603294280        9.3352775841       -4.4161463352  W2        4946            0.0000000000
     14837      4946  TIP3      H1             16.8591694280        9.3072175841       -5.2311763352  W2        4946            0.0000000000
     14838      4946  TIP3      H2             17.3656994280        8.4295975841       -4.1064163352  W2        4946            0.0000000000
     14839      4947  TIP3      OH2            17.1105994280       12.1156575841       -7.5321263352  W2        4947            0.0000000000
     14840      4947  TIP3      H1             18.0566594280       11.9713575841       -7.5511763352  W2        4947            0.0000000000
     14841      4947  TIP3      H2             16.9982294280       12.8999375841       -6.9950063352  W2        4947            0.0000000000
     14842      4948  TIP3      OH2            35.3084494280       12.7816275841       -1.8497563352  W2        4948            0.0000000000
     14843      4948  TIP3      H1             35.2591294280       11.8264375841       -1.8869963352  W2        4948            0.0000000000
     14844      4948  TIP3      H2             34.4816794280       13.0491575841       -1.4483763352  W2        4948            0.0000000000
     14845      4949  TIP3      OH2            26.2868494280       12.3555475841       -2.9736163352  W2        4949            0.0000000000
     14846      4949  TIP3      H1             26.3743094280       13.1820075841       -2.4987063352  W2        4949            0.0000000000
     14847      4949  TIP3      H2             25.4233594280       12.0259275841       -2.7246863352  W2        4949            0.0000000000
     14848      4950  TIP3      OH2            26.7014294280       16.1279175841      -13.1675563352  W2        4950            0.0000000000
     14849      4950  TIP3      H1             26.6260294280       16.0066375841      -14.1140363352  W2        4950            0.0000000000
     14850      4950  TIP3      H2             26.7342994280       17.0771875841      -13.0490963352  W2        4950            0.0000000000
     14851      4951  TIP3      OH2            20.3548094280       14.9166175841      -11.3866563352  W2        4951            0.0000000000
     14852      4951  TIP3      H1             20.5068494280       14.5686575841      -10.5080063352  W2        4951            0.0000000000
     14853      4951  TIP3      H2             19.5038494280       14.5603475841      -11.6419363352  W2        4951            0.0000000000
     14854      4952  TIP3      OH2            29.8030294280       15.2819375841      -16.1653163352  W2        4952            0.0000000000
     14855      4952  TIP3      H1             30.1778694280       14.5375475841      -16.6360563352  W2        4952            0.0000000000
     14856      4952  TIP3      H2             29.8073994280       15.0119975841      -15.2469863352  W2        4952            0.0000000000
     14857      4953  TIP3      OH2            29.4718394280       15.2076475841      -13.4160963352  W2        4953            0.0000000000
     14858      4953  TIP3      H1             28.5368194280       15.3078375841      -13.2373963352  W2        4953            0.0000000000
     14859      4953  TIP3      H2             29.7520294280       14.4982475841      -12.8377763352  W2        4953            0.0000000000
     14860      4954  TIP3      OH2            32.4604294280        4.2748775841       -1.3695363352  W2        4954            0.0000000000
     14861      4954  TIP3      H1             32.0531094280        4.7554375841       -2.0902063352  W2        4954            0.0000000000
     14862      4954  TIP3      H2             32.5009994280        3.3694775841       -1.6774563352  W2        4954            0.0000000000
     14863      4955  TIP3      OH2            19.6093794280       10.6588175841       -3.3728663352  W2        4955            0.0000000000
     14864      4955  TIP3      H1             19.8255094280       10.2973775841       -2.5132863352  W2        4955            0.0000000000
     14865      4955  TIP3      H2             18.7538494280       10.2841975841       -3.5825163352  W2        4955            0.0000000000
     14866      4956  TIP3      OH2            22.2281794280       -0.8711324159       -7.3774463352  W2        4956            0.0000000000
     14867      4956  TIP3      H1             21.3665494280       -0.9583124159       -7.7851563352  W2        4956            0.0000000000
     14868      4956  TIP3      H2             22.2057494280       -0.0151224159       -6.9496863352  W2        4956            0.0000000000
     14869      4957  TIP3      OH2            26.8909594280       -1.1490924159       -4.0027463352  W2        4957            0.0000000000
     14870      4957  TIP3      H1             27.3112694280       -1.5643824159       -3.2496863352  W2        4957            0.0000000000
     14871      4957  TIP3      H2             25.9579194280       -1.3277624159       -3.8855463352  W2        4957            0.0000000000
     14872      4958  TIP3      OH2            30.2174494280        2.6064275841       -3.1492963352  W2        4958            0.0000000000
     14873      4958  TIP3      H1             29.7033994280        2.4806475841       -2.3516963352  W2        4958            0.0000000000
     14874      4958  TIP3      H2             30.0619194280        3.5187375841       -3.3936763352  W2        4958            0.0000000000
     14875      4959  TIP3      OH2            30.9799394280        7.4674275841      -17.3879963352  W2        4959            0.0000000000
     14876      4959  TIP3      H1             31.0220194280        7.2448175841      -18.3179963352  W2        4959            0.0000000000
     14877      4959  TIP3      H2             31.8291494280        7.8661375841      -17.1980063352  W2        4959            0.0000000000
     14878      4960  TIP3      OH2            26.5526894280        1.3432475841      -16.7176663352  W2        4960            0.0000000000
     14879      4960  TIP3      H1             26.2991694280        1.3624075841      -15.7948563352  W2        4960            0.0000000000
     14880      4960  TIP3      H2             26.2958994280        0.4717875841      -17.0190463352  W2        4960            0.0000000000
     14881      4961  TIP3      OH2            22.3191894280        4.0943175841       -6.2824263352  W2        4961            0.0000000000
     14882      4961  TIP3      H1             21.6773994280        4.0540475841       -5.5734163352  W2        4961            0.0000000000
     14883      4961  TIP3      H2             22.3563894280        5.0207875841       -6.5201263352  W2        4961            0.0000000000
     14884      4962  TIP3      OH2            22.3160994280        4.3153275841      -11.3704263352  W2        4962            0.0000000000
     14885      4962  TIP3      H1             21.4233894280        3.9749375841      -11.4290463352  W2        4962            0.0000000000
     14886      4962  TIP3      H2             22.7667594280        3.9384175841      -12.1261063352  W2        4962            0.0000000000
     14887      4963  TIP3      OH2            27.8516494280        4.7313575841      -12.5533463352  W2        4963            0.0000000000
     14888      4963  TIP3      H1             27.4426794280        5.5462175841      -12.8448663352  W2        4963            0.0000000000
     14889      4963  TIP3      H2             28.5722694280        4.5913675841      -13.1676363352  W2        4963            0.0000000000
     14890      4964  TIP3      OH2            26.9538094280        4.9069975841       -1.0652763352  W2        4964            0.0000000000
     14891      4964  TIP3      H1             26.3911894280        4.2021575841       -0.7444963352  W2        4964            0.0000000000
     14892      4964  TIP3      H2             27.7801494280        4.7861875841       -0.5975163352  W2        4964            0.0000000000
     14893      4965  TIP3      OH2            28.8564194280        4.1773975841       -9.7393763352  W2        4965            0.0000000000
     14894      4965  TIP3      H1             28.6608694280        4.7830775841      -10.4543163352  W2        4965            0.0000000000
     14895      4965  TIP3      H2             29.0376794280        3.3439175841      -10.1737463352  W2        4965            0.0000000000
     14896      4966  TIP3      OH2            20.0692394280        4.4146675841       -4.4152263352  W2        4966            0.0000000000
     14897      4966  TIP3      H1             20.0311794280        4.8148275841       -3.5465163352  W2        4966            0.0000000000
     14898      4966  TIP3      H2             19.5783494280        3.5979075841       -4.3249363352  W2        4966            0.0000000000
     14899      4967  TIP3      OH2            23.4349794280        1.7888975841      -17.6166263352  W2        4967            0.0000000000
     14900      4967  TIP3      H1             23.0040494280        1.3439075841      -16.8868863352  W2        4967            0.0000000000
     14901      4967  TIP3      H2             22.7168494280        2.1605275841      -18.1288763352  W2        4967            0.0000000000
     14902      4968  TIP3      OH2            16.6773194280        1.5308475841      -10.5647563352  W2        4968            0.0000000000
     14903      4968  TIP3      H1             17.3080894280        1.5020575841       -9.8453663352  W2        4968            0.0000000000
     14904      4968  TIP3      H2             17.1267494280        1.1057175841      -11.2951663352  W2        4968            0.0000000000
     14905      4969  TIP3      OH2            17.9515294280        2.2770475841      -15.1407163352  W2        4969            0.0000000000
     14906      4969  TIP3      H1             18.4256994280        2.8680375841      -15.7256263352  W2        4969            0.0000000000
     14907      4969  TIP3      H2             17.2341694280        2.8073375841      -14.7937063352  W2        4969            0.0000000000
     14908      4970  TIP3      OH2            28.1203394280        5.8155275841       -5.0681363352  W2        4970            0.0000000000
     14909      4970  TIP3      H1             28.4438194280        5.1844975841       -5.7110863352  W2        4970            0.0000000000
     14910      4970  TIP3      H2             27.6802694280        5.2807475841       -4.4073963352  W2        4970            0.0000000000
     14911      4971  TIP3      OH2            24.8976294280        1.7430775841      -10.2840163352  W2        4971            0.0000000000
     14912      4971  TIP3      H1             23.9867394280        1.7997575841       -9.9954163352  W2        4971            0.0000000000
     14913      4971  TIP3      H2             25.4029194280        1.6826275841       -9.4732963352  W2        4971            0.0000000000
     14914      4972  TIP3      OH2            19.7259694280        3.3717075841      -11.4572563352  W2        4972            0.0000000000
     14915      4972  TIP3      H1             18.8367694280        3.4712575841      -11.7972963352  W2        4972            0.0000000000
     14916      4972  TIP3      H2             20.0224594280        2.5300075841      -11.8034663352  W2        4972            0.0000000000
     14917      4973  TIP3      OH2            23.3791494280        3.3719675841      -13.8007963352  W2        4973            0.0000000000
     14918      4973  TIP3      H1             24.3106994280        3.5009675841      -13.6224863352  W2        4973            0.0000000000
     14919      4973  TIP3      H2             23.1641794280        4.0413975841      -14.4503263352  W2        4973            0.0000000000
     14920      4974  TIP3      OH2            29.3028194280        0.9777075841       -7.0198363352  W2        4974            0.0000000000
     14921      4974  TIP3      H1             28.6259794280        1.1090175841       -6.3558663352  W2        4974            0.0000000000
     14922      4974  TIP3      H2             28.8173094280        0.8226575841       -7.8300663352  W2        4974            0.0000000000
     14923      4975  TIP3      OH2            22.0531694280        4.5661875841      -16.2341863352  W2        4975            0.0000000000
     14924      4975  TIP3      H1             21.5106794280        4.1865675841      -16.9254263352  W2        4975            0.0000000000
     14925      4975  TIP3      H2             22.8866594280        4.7606575841      -16.6627763352  W2        4975            0.0000000000
     14926      4976  TIP3      OH2            32.5903294280       16.6492475841       -0.7430763352  W2        4976            0.0000000000
     14927      4976  TIP3      H1             32.7901994280       17.0734375841       -1.5775463352  W2        4976            0.0000000000
     14928      4976  TIP3      H2             33.2456994280       16.9930675841       -0.1360363352  W2        4976            0.0000000000
     14929      4977  TIP3      OH2            20.1883094280        9.1233775841       -1.1350263352  W2        4977            0.0000000000
     14930      4977  TIP3      H1             20.9205494280        9.3779675841       -0.5735763352  W2        4977            0.0000000000
     14931      4977  TIP3      H2             19.4081794280        9.3279175841       -0.6194863352  W2        4977            0.0000000000
     14932      4978  TIP3      OH2            26.2175994280        4.5303775841       -8.3970563352  W2        4978            0.0000000000
     14933      4978  TIP3      H1             26.7819394280        3.9840375841       -8.9440963352  W2        4978            0.0000000000
     14934      4978  TIP3      H2             26.0699394280        4.0085675841       -7.6082963352  W2        4978            0.0000000000
     14935      4979  TIP3      OH2            21.2195694280        0.6669875841      -11.9785763352  W2        4979            0.0000000000
     14936      4979  TIP3      H1             20.9025194280       -0.2354824159      -12.0140363352  W2        4979            0.0000000000
     14937      4979  TIP3      H2             22.0009794280        0.6687275841      -12.5314163352  W2        4979            0.0000000000
     14938      4980  TIP3      OH2            24.8441894280        2.9189875841       -5.9830163352  W2        4980            0.0000000000
     14939      4980  TIP3      H1             24.0087194280        3.3729375841       -5.8727763352  W2        4980            0.0000000000
     14940      4980  TIP3      H2             25.3682494280        3.1948375841       -5.2310263352  W2        4980            0.0000000000
     14941      4981  TIP3      OH2            25.3884494280        9.1317575841      -14.2983763352  W2        4981            0.0000000000
     14942      4981  TIP3      H1             24.6435494280        8.6242875841      -14.6205863352  W2        4981            0.0000000000
     14943      4981  TIP3      H2             25.2541694280        9.1805575841      -13.3518963352  W2        4981            0.0000000000
     14944      4982  TIP3      OH2            32.5383394280        8.2645775841       -5.5116163352  W2        4982            0.0000000000
     14945      4982  TIP3      H1             33.1802194280        8.7212075841       -6.0553963352  W2        4982            0.0000000000
     14946      4982  TIP3      H2             31.7080294280        8.3778175841       -5.9742063352  W2        4982            0.0000000000
     14947      4983  TIP3      OH2            29.2861294280        1.9457475841      -16.0991163352  W2        4983            0.0000000000
     14948      4983  TIP3      H1             28.3475494280        2.0573075841      -16.2502363352  W2        4983            0.0000000000
     14949      4983  TIP3      H2             29.5833394280        2.8024375841      -15.7925463352  W2        4983            0.0000000000
     14950      4984  TIP3      OH2            26.9076594280        9.3160875841       -3.0614663352  W2        4984            0.0000000000
     14951      4984  TIP3      H1             26.5622694280        8.9343275841       -2.2545063352  W2        4984            0.0000000000
     14952      4984  TIP3      H2             26.7076694280       10.2494475841       -2.9901763352  W2        4984            0.0000000000
     14953      4985  TIP3      OH2            30.0044794280        3.8130175841      -14.4383763352  W2        4985            0.0000000000
     14954      4985  TIP3      H1             30.8963794280        3.6755175841      -14.1192563352  W2        4985            0.0000000000
     14955      4985  TIP3      H2             30.0608394280        4.6036275841      -14.9750263352  W2        4985            0.0000000000
     14956      4986  TIP3      OH2            20.5132794280        8.4267575841       -8.5285863352  W2        4986            0.0000000000
     14957      4986  TIP3      H1             21.2579994280        8.4243275841       -9.1299363352  W2        4986            0.0000000000
     14958      4986  TIP3      H2             20.5909394280        7.6031375841       -8.0470763352  W2        4986            0.0000000000
     14959      4987  TIP3      OH2            27.5138594280       10.5901875841      -15.2729163352  W2        4987            0.0000000000
     14960      4987  TIP3      H1             27.2186994280       11.4169775841      -14.8914363352  W2        4987            0.0000000000
     14961      4987  TIP3      H2             26.8108594280        9.9708775841      -15.0767763352  W2        4987            0.0000000000
     14962      4988  TIP3      OH2            17.5212494280        6.8874475841       -3.2137363352  W2        4988            0.0000000000
     14963      4988  TIP3      H1             17.7441094280        6.4694075841       -2.3819863352  W2        4988            0.0000000000
     14964      4988  TIP3      H2             16.9192594280        6.2749475841       -3.6364563352  W2        4988            0.0000000000
     14965      4989  TIP3      OH2            24.5377394280        6.4044375841       -1.0007663352  W2        4989            0.0000000000
     14966      4989  TIP3      H1             24.2418194280        6.2387375841       -1.8958563352  W2        4989            0.0000000000
     14967      4989  TIP3      H2             25.4692594280        6.1844675841       -1.0113763352  W2        4989            0.0000000000
     14968      4990  TIP3      OH2            29.1580194280       11.7776375841       -3.1109663352  W2        4990            0.0000000000
     14969      4990  TIP3      H1             28.2574494280       11.9608975841       -3.3785763352  W2        4990            0.0000000000
     14970      4990  TIP3      H2             29.1921294280       12.0365675841       -2.1900863352  W2        4990            0.0000000000
     14971      4991  TIP3      OH2            34.8893494280        4.0224275841      -14.7437063352  W2        4991            0.0000000000
     14972      4991  TIP3      H1             34.3349794280        3.6262275841      -15.4159563352  W2        4991            0.0000000000
     14973      4991  TIP3      H2             34.9897094280        4.9329475841      -15.0213763352  W2        4991            0.0000000000
     14974      4992  TIP3      OH2            34.8525494280        9.8225975841       -1.9065563352  W2        4992            0.0000000000
     14975      4992  TIP3      H1             34.0013994280       10.0609775841       -2.2739163352  W2        4992            0.0000000000
     14976      4992  TIP3      H2             35.4428894280        9.8059175841       -2.6598463352  W2        4992            0.0000000000
     14977      4993  TIP3      OH2            33.1845194280       12.8084675841      -14.2784963352  W2        4993            0.0000000000
     14978      4993  TIP3      H1             32.8116294280       11.9828475841      -13.9694363352  W2        4993            0.0000000000
     14979      4993  TIP3      H2             33.4618694280       12.6254075841      -15.1761563352  W2        4993            0.0000000000
     14980      4994  TIP3      OH2            30.3449094280        7.6164175841       -7.2573063352  W2        4994            0.0000000000
     14981      4994  TIP3      H1             29.4165994280        7.3846075841       -7.2843763352  W2        4994            0.0000000000
     14982      4994  TIP3      H2             30.7960194280        6.8393975841       -7.5874263352  W2        4994            0.0000000000
     14983      4995  TIP3      OH2            22.8882194280       11.9445775841      -11.1244363352  W2        4995            0.0000000000
     14984      4995  TIP3      H1             23.4154394280       12.7180175841      -11.3245563352  W2        4995            0.0000000000
     14985      4995  TIP3      H2             22.0080694280       12.1694975841      -11.4260363352  W2        4995            0.0000000000
     14986      4996  TIP3      OH2            18.6429894280        6.8069875841      -16.5371963352  W2        4996            0.0000000000
     14987      4996  TIP3      H1             19.2589794280        7.4337075841      -16.1577163352  W2        4996            0.0000000000
     14988      4996  TIP3      H2             17.7812494280        7.1229675841      -16.2655463352  W2        4996            0.0000000000
     14989      4997  TIP3      OH2            24.3154494280        9.6075675841      -11.5480063352  W2        4997            0.0000000000
     14990      4997  TIP3      H1             24.0744494280       10.5330075841      -11.5064763352  W2        4997            0.0000000000
     14991      4997  TIP3      H2             23.5748094280        9.1486975841      -11.1516163352  W2        4997            0.0000000000
     14992      4998  TIP3      OH2            24.8301094280       13.7569275841       -5.2328963352  W2        4998            0.0000000000
     14993      4998  TIP3      H1             25.1925794280       14.6114875841       -5.4664563352  W2        4998            0.0000000000
     14994      4998  TIP3      H2             25.3616294280       13.4650875841       -4.4922663352  W2        4998            0.0000000000
     14995      4999  TIP3      OH2            22.9985294280       14.6293275841      -12.0027863352  W2        4999            0.0000000000
     14996      4999  TIP3      H1             22.0485794280       14.7350675841      -11.9514563352  W2        4999            0.0000000000
     14997      4999  TIP3      H2             23.3503394280       15.4500675841      -11.6580363352  W2        4999            0.0000000000
     14998      5000  TIP3      OH2            28.3741894280        9.8559975841       -5.5323363352  W2        5000            0.0000000000
     14999      5000  TIP3      H1             27.9483194280        9.6281675841       -4.7059363352  W2        5000            0.0000000000
     15000      5000  TIP3      H2             28.9547694280        9.1171775841       -5.7148063352  W2        5000            0.0000000000
     15001      5001  TIP3      OH2            30.5770794280       10.7850475841      -16.4584363352  W2        5001            0.0000000000
     15002      5001  TIP3      H1             30.9303894280       10.4050275841      -15.6540863352  W2        5001            0.0000000000
     15003      5001  TIP3      H2             29.6284294280       10.6915275841      -16.3715063352  W2        5001            0.0000000000
     15004      5002  TIP3      OH2            31.0326094280       14.4079475841       -3.0628563352  W2        5002            0.0000000000
     15005      5002  TIP3      H1             30.4309294280       13.8522375841       -3.5582263352  W2        5002            0.0000000000
     15006      5002  TIP3      H2             31.3139794280       15.0749275841       -3.6891163352  W2        5002            0.0000000000
     15007      5003  TIP3      OH2            35.0805194280       15.2642975841      -16.2574163352  W2        5003            0.0000000000
     15008      5003  TIP3      H1             35.8243094280       15.8503475841      -16.3972563352  W2        5003            0.0000000000
     15009      5003  TIP3      H2             34.3863294280       15.8328775841      -15.9241763352  W2        5003            0.0000000000
     15010      5004  TIP3      OH2            19.1551994280        1.6407175841       -3.6555963352  W2        5004            0.0000000000
     15011      5004  TIP3      H1             18.2624294280        1.9792575841       -3.7231963352  W2        5004            0.0000000000
     15012      5004  TIP3      H2             19.0564794280        0.7853275841       -3.2375163352  W2        5004            0.0000000000
     15013      5005  TIP3      OH2            31.4430094280        9.4572475841      -14.2316463352  W2        5005            0.0000000000
     15014      5005  TIP3      H1             31.1657694280        8.7291775841      -13.6755363352  W2        5005            0.0000000000
     15015      5005  TIP3      H2             32.3703094280        9.5764475841      -14.0263863352  W2        5005            0.0000000000
     15016      5006  TIP3      OH2            18.8063994280       13.4451575841       -5.2206563352  W2        5006            0.0000000000
     15017      5006  TIP3      H1             19.0234294280       12.5133975841       -5.2516863352  W2        5006            0.0000000000
     15018      5006  TIP3      H2             19.0527494280       13.7196575841       -4.3373763352  W2        5006            0.0000000000
     15019      5007  TIP3      OH2            24.6678594280       11.8966575841      -18.0114363352  W2        5007            0.0000000000
     15020      5007  TIP3      H1             24.9068394280       11.1484675841      -18.5585463352  W2        5007            0.0000000000
     15021      5007  TIP3      H2             24.3989894280       11.5088275841      -17.1786563352  W2        5007            0.0000000000
     15022      5008  TIP3      OH2            23.6049194280       11.4670375841      -15.5551763352  W2        5008            0.0000000000
     15023      5008  TIP3      H1             23.7517194280       10.9470175841      -14.7650863352  W2        5008            0.0000000000
     15024      5008  TIP3      H2             23.6020894280       12.3737975841      -15.2485863352  W2        5008            0.0000000000
     15025      5009  TIP3      OH2            20.0580294280        8.7193675841      -15.0446363352  W2        5009            0.0000000000
     15026      5009  TIP3      H1             19.3719594280        9.0716175841      -14.4776663352  W2        5009            0.0000000000
     15027      5009  TIP3      H2             20.5808194280        9.4823275841      -15.2912063352  W2        5009            0.0000000000
     15028      5010  TIP3      OH2            27.8895394280        1.3817475841       -4.7657363352  W2        5010            0.0000000000
     15029      5010  TIP3      H1             28.5883294280        1.4556175841       -4.1157663352  W2        5010            0.0000000000
     15030      5010  TIP3      H2             27.5086794280        0.5172475841       -4.6114463352  W2        5010            0.0000000000
     15031      5011  TIP3      OH2            28.6740294280        1.0339175841      -13.6685063352  W2        5011            0.0000000000
     15032      5011  TIP3      H1             28.8938594280        1.5054575841      -14.4719663352  W2        5011            0.0000000000
     15033      5011  TIP3      H2             29.2324294280        1.4281775841      -12.9984463352  W2        5011            0.0000000000
     15034      5012  TIP3      OH2            26.3426394280       13.1643975841      -14.8057563352  W2        5012            0.0000000000
     15035      5012  TIP3      H1             25.5262494280       13.6613675841      -14.7533263352  W2        5012            0.0000000000
     15036      5012  TIP3      H2             26.8722694280       13.6397475841      -15.4458763352  W2        5012            0.0000000000
     15037      5013  TIP3      OH2            25.8740194280        2.7617975841      -12.8336663352  W2        5013            0.0000000000
     15038      5013  TIP3      H1             26.6862794280        3.2661175841      -12.7874963352  W2        5013            0.0000000000
     15039      5013  TIP3      H2             25.6293194280        2.6167675841      -11.9197063352  W2        5013            0.0000000000
     15040      5014  TIP3      OH2            26.4096594280        3.7480675841       -3.6490063352  W2        5014            0.0000000000
     15041      5014  TIP3      H1             26.5286894280        4.3216075841       -2.8919663352  W2        5014            0.0000000000
     15042      5014  TIP3      H2             27.0651194280        3.0600075841       -3.5342263352  W2        5014            0.0000000000
     15043      5015  TIP3      OH2            26.7576894280       -0.1569024159      -11.8955563352  W2        5015            0.0000000000
     15044      5015  TIP3      H1             26.4110394280        0.4601575841      -11.2511263352  W2        5015            0.0000000000
     15045      5015  TIP3      H2             27.4163794280        0.3436675841      -12.3770063352  W2        5015            0.0000000000
     15046      5016  TIP3      OH2            23.6809494280       14.2081175841      -14.8240663352  W2        5016            0.0000000000
     15047      5016  TIP3      H1             23.8418194280       15.0078675841      -15.3248063352  W2        5016            0.0000000000
     15048      5016  TIP3      H2             23.4837294280       14.5147175841      -13.9390063352  W2        5016            0.0000000000
     15049      5017  TIP3      OH2            22.4153894280        0.9060375841      -15.2083063352  W2        5017            0.0000000000
     15050      5017  TIP3      H1             22.3318694280        1.7943475841      -14.8616663352  W2        5017            0.0000000000
     15051      5017  TIP3      H2             23.3054194280        0.6407075841      -14.9766263352  W2        5017            0.0000000000
     15052      5018  TIP3      OH2            32.6142394280        1.6550975841       -2.8140363352  W2        5018            0.0000000000
     15053      5018  TIP3      H1             31.6978194280        1.9172675841       -2.9016663352  W2        5018            0.0000000000
     15054      5018  TIP3      H2             32.9497394280        1.6519975841       -3.7105063352  W2        5018            0.0000000000
     15055      5019  TIP3      OH2            31.2163394280        5.4051975841       -8.7183063352  W2        5019            0.0000000000
     15056      5019  TIP3      H1             30.4187794280        4.9902175841       -9.0468063352  W2        5019            0.0000000000
     15057      5019  TIP3      H2             31.6614494280        4.7145675841       -8.2272563352  W2        5019            0.0000000000
     15058      5020  TIP3      OH2            20.6739194280       11.3332575841      -16.1478563352  W2        5020            0.0000000000
     15059      5020  TIP3      H1             21.2660694280       12.0327375841      -15.8716163352  W2        5020            0.0000000000
     15060      5020  TIP3      H2             21.1332194280       10.9002075841      -16.8673963352  W2        5020            0.0000000000
     15061      5021  TIP3      OH2            18.9898394280        3.9975575841      -17.0319163352  W2        5021            0.0000000000
     15062      5021  TIP3      H1             18.9450994280        4.9368675841      -16.8532163352  W2        5021            0.0000000000
     15063      5021  TIP3      H2             18.1021594280        3.7620475841      -17.3017063352  W2        5021            0.0000000000
     15064      5022  TIP3      OH2            32.3027994280       14.6614475841       -7.0959563352  W2        5022            0.0000000000
     15065      5022  TIP3      H1             32.1472294280       15.3398875841       -7.7530263352  W2        5022            0.0000000000
     15066      5022  TIP3      H2             33.2354394280       14.7333775841       -6.8928963352  W2        5022            0.0000000000
     15067      5023  TIP3      OH2            19.7980394280       -1.2207824159       -8.3588163352  W2        5023            0.0000000000
     15068      5023  TIP3      H1             19.5690194280       -1.1615324159       -9.2863163352  W2        5023            0.0000000000
     15069      5023  TIP3      H2             19.3553794280       -2.0122324159       -8.0524063352  W2        5023            0.0000000000
     15070      5024  TIP3      OH2            18.7283694280       12.7199275841      -12.1982363352  W2        5024            0.0000000000
     15071      5024  TIP3      H1             17.8962294280       13.1921975841      -12.1710963352  W2        5024            0.0000000000
     15072      5024  TIP3      H2             19.2741994280       13.2296875841      -12.7969263352  W2        5024            0.0000000000
     15073      5025  TIP3      OH2            18.0167394280       15.3322975841       -0.8684363352  W2        5025            0.0000000000
     15074      5025  TIP3      H1             18.5569594280       15.1156975841       -0.1085163352  W2        5025            0.0000000000
     15075      5025  TIP3      H2             17.5355394280       14.5268975841       -1.0581863352  W2        5025            0.0000000000
     15076      5026  TIP3      OH2            22.6140794280       14.2517375841        0.7519836648  W2        5026            0.0000000000
     15077      5026  TIP3      H1             23.3817994280       13.7928175841        1.0929036648  W2        5026            0.0000000000
     15078      5026  TIP3      H2             22.5926994280       14.0257175841       -0.1778963352  W2        5026            0.0000000000
     15079      5027  TIP3      OH2            26.7060394280       13.7597975841      -17.8728363352  W2        5027            0.0000000000
     15080      5027  TIP3      H1             26.0621394280       13.1286575841      -17.5514663352  W2        5027            0.0000000000
     15081      5027  TIP3      H2             27.4678694280       13.2285975841      -18.1044863352  W2        5027            0.0000000000
     15082      5028  TIP3      OH2            29.1909494280       12.6318475841       -0.5188663352  W2        5028            0.0000000000
     15083      5028  TIP3      H1             28.8398994280       11.7751475841       -0.2758263352  W2        5028            0.0000000000
     15084      5028  TIP3      H2             29.9172694280       12.7745175841        0.0880336648  W2        5028            0.0000000000
     15085      5029  TIP3      OH2            31.3103294280       13.5767875841      -17.6390363352  W2        5029            0.0000000000
     15086      5029  TIP3      H1             31.5933694280       12.7823075841      -17.1863463352  W2        5029            0.0000000000
     15087      5029  TIP3      H2             32.0501194280       13.8098875841      -18.1999263352  W2        5029            0.0000000000
     15088      5030  TIP3      OH2            17.9236894280        9.1427075841        0.0859936648  W2        5030            0.0000000000
     15089      5030  TIP3      H1             18.0677394280        8.2407775841       -0.2003363352  W2        5030            0.0000000000
     15090      5030  TIP3      H2             17.1514294280        9.4289175841       -0.4017763352  W2        5030            0.0000000000
     15091      5031  TIP3      OH2            22.2650594280        9.4862775841      -17.7815463352  W2        5031            0.0000000000
     15092      5031  TIP3      H1             22.3294694280        8.6922375841      -17.2509063352  W2        5031            0.0000000000
     15093      5031  TIP3      H2             22.9179794280        9.3675575841      -18.4713463352  W2        5031            0.0000000000
     15094      5032  TIP3      OH2            24.5792994280        9.1125175841       -0.4813663352  W2        5032            0.0000000000
     15095      5032  TIP3      H1             24.2506794280        9.3833275841       -1.3386263352  W2        5032            0.0000000000
     15096      5032  TIP3      H2             24.7311194280        8.1714975841       -0.5688663352  W2        5032            0.0000000000
     15097      5033  TIP3      OH2            27.6173994280       10.5334475841      -18.0457463352  W2        5033            0.0000000000
     15098      5033  TIP3      H1             27.3488094280       10.7136575841      -17.1448563352  W2        5033            0.0000000000
     15099      5033  TIP3      H2             27.4109594280        9.6080675841      -18.1771663352  W2        5033            0.0000000000
     15100      5034  TIP3      OH2            30.3138194280        9.0282475841       -3.0981363352  W2        5034            0.0000000000
     15101      5034  TIP3      H1             31.0592994280        9.6166175841       -3.2177363352  W2        5034            0.0000000000
     15102      5034  TIP3      H2             29.5564994280        9.6102175841       -3.0348263352  W2        5034            0.0000000000
     15103      5035  TIP3      OH2            18.7563394280        6.3430375841       -0.4940763352  W2        5035            0.0000000000
     15104      5035  TIP3      H1             19.1644594280        5.4856975841       -0.6150163352  W2        5035            0.0000000000
     15105      5035  TIP3      H2             18.4960994280        6.3571675841        0.4269536648  W2        5035            0.0000000000
     15106      5036  TIP3      OH2            23.4144394280        7.4588975841      -15.4757463352  W2        5036            0.0000000000
     15107      5036  TIP3      H1             22.9546394280        6.9747275841      -14.7898963352  W2        5036            0.0000000000
     15108      5036  TIP3      H2             23.6693094280        6.7904375841      -16.1116963352  W2        5036            0.0000000000
     15109      5037  TIP3      OH2            22.7033694280        5.3516075841       -3.1197863352  W2        5037            0.0000000000
     15110      5037  TIP3      H1             22.0849794280        6.0262675841       -2.8393163352  W2        5037            0.0000000000
     15111      5037  TIP3      H2             23.0474894280        5.6729975841       -3.9531663352  W2        5037            0.0000000000
     15112      5038  TIP3      OH2            24.4854794280        5.7020775841      -17.2134263352  W2        5038            0.0000000000
     15113      5038  TIP3      H1             24.3049794280        5.5471975841      -18.1405963352  W2        5038            0.0000000000
     15114      5038  TIP3      H2             25.4355294280        5.8099475841      -17.1686363352  W2        5038            0.0000000000
     15115      5039  TIP3      OH2            27.7231894280        7.8231375841        0.1576936648  W2        5039            0.0000000000
     15116      5039  TIP3      H1             28.6763094280        7.9070475841        0.1302936648  W2        5039            0.0000000000
     15117      5039  TIP3      H2             27.5626494280        7.1113175841        0.7771836648  W2        5039            0.0000000000
     15118      5040  TIP3      OH2            33.8753094280        8.0564975841      -17.7676163352  W2        5040            0.0000000000
     15119      5040  TIP3      H1             33.6017894280        7.6320475841      -18.5807863352  W2        5040            0.0000000000
     15120      5040  TIP3      H2             33.9147194280        8.9879475841      -17.9845763352  W2        5040            0.0000000000
     15121      5041  TIP3      OH2            23.0427394280        2.7066875841       -2.0374763352  W2        5041            0.0000000000
     15122      5041  TIP3      H1             23.1928294280        1.9778175841       -2.6395063352  W2        5041            0.0000000000
     15123      5041  TIP3      H2             23.0449794280        3.4838575841       -2.5962563352  W2        5041            0.0000000000
     15124      5042  TIP3      OH2            23.4553094280        1.0762675841       -4.5447363352  W2        5042            0.0000000000
     15125      5042  TIP3      H1             23.9910594280        1.5279375841       -5.1968063352  W2        5042            0.0000000000
     15126      5042  TIP3      H2             22.6032694280        0.9682475841       -4.9673263352  W2        5042            0.0000000000
     15127      5043  TIP3      OH2            25.0371494280        6.5158875841       -4.3052163352  W2        5043            0.0000000000
     15128      5043  TIP3      H1             25.7876294280        6.3596375841       -4.8784363352  W2        5043            0.0000000000
     15129      5043  TIP3      H2             24.6979794280        7.3675475841       -4.5806663352  W2        5043            0.0000000000
     15130      5044  TIP3      OH2            29.4527694280        4.3310675841        0.7233136648  W2        5044            0.0000000000
     15131      5044  TIP3      H1             29.6448994280        3.4000075841        0.6117636648  W2        5044            0.0000000000
     15132      5044  TIP3      H2             30.3103994280        4.7560175841        0.7128536648  W2        5044            0.0000000000
     15133      5045  TIP3      OH2            30.7694894280        7.1195875841       -1.1994163352  W2        5045            0.0000000000
     15134      5045  TIP3      H1             30.4879894280        7.8290475841       -1.7770363352  W2        5045            0.0000000000
     15135      5045  TIP3      H2             31.7119194280        7.0468875841       -1.3502963352  W2        5045            0.0000000000
     15136      5046  TIP3      OH2            21.5213694280        3.9050375841       -0.1259163352  W2        5046            0.0000000000
     15137      5046  TIP3      H1             20.7542694280        3.3725175841       -0.3361563352  W2        5046            0.0000000000
     15138      5046  TIP3      H2             22.2002694280        3.5950775841       -0.7252863352  W2        5046            0.0000000000
     15139      5047  TIP3      OH2            24.2608594280       -1.4671624159       -4.1133763352  W2        5047            0.0000000000
     15140      5047  TIP3      H1             24.1628194280       -0.5208424159       -4.2187563352  W2        5047            0.0000000000
     15141      5047  TIP3      H2             23.5184794280       -1.8397824159       -4.5890263352  W2        5047            0.0000000000
     15142      5048  TIP3      OH2            25.5249094280        2.8543775841       -0.5495363352  W2        5048            0.0000000000
     15143      5048  TIP3      H1             25.2894494280        2.6350475841        0.3519536648  W2        5048            0.0000000000
     15144      5048  TIP3      H2             24.7415994280        2.6474975841       -1.0592863352  W2        5048            0.0000000000
     15145      5049  TIP3      OH2            28.2405694280        1.9817275841       -1.4741863352  W2        5049            0.0000000000
     15146      5049  TIP3      H1             27.2931094280        2.0136975841       -1.3418563352  W2        5049            0.0000000000
     15147      5049  TIP3      H2             28.5532394280        1.3564375841       -0.8203663352  W2        5049            0.0000000000
     15148      5050  TIP3      OH2            29.8747194280        0.6158375841        0.5310036648  W2        5050            0.0000000000
     15149      5050  TIP3      H1             29.7778994280       -0.3364324159        0.5251936648  W2        5050            0.0000000000
     15150      5050  TIP3      H2             29.5530294280        0.8845175841        1.3915536648  W2        5050            0.0000000000
     15151      5051  TIP3      OH2            19.7016494280        1.8254175841       -0.4214463352  W2        5051            0.0000000000
     15152      5051  TIP3      H1             19.9133894280        1.1190275841       -1.0316963352  W2        5051            0.0000000000
     15153      5051  TIP3      H2             19.5903994280        1.3880175841        0.4226736648  W2        5051            0.0000000000
     15154      5052  TIP3      OH2            24.4826694280       -2.1734224159       -1.4420963352  W2        5052            0.0000000000
     15155      5052  TIP3      H1             25.1945094280       -2.8132024159       -1.4561863352  W2        5052            0.0000000000
     15156      5052  TIP3      H2             24.3817094280       -1.9065924159       -2.3557863352  W2        5052            0.0000000000
     15157      5053  TIP3      OH2            24.8364194280       -0.4905824159        0.6115336648  W2        5053            0.0000000000
     15158      5053  TIP3      H1             24.7046394280       -0.9662024159       -0.2086163352  W2        5053            0.0000000000
     15159      5053  TIP3      H2             24.2371594280        0.2537775841        0.5562436648  W2        5053            0.0000000000
     15160      5054  TIP3      OH2            24.3826494280       16.3924475841      -16.2120663352  W2        5054            0.0000000000
     15161      5054  TIP3      H1             25.3157194280       16.5503175841      -16.0682263352  W2        5054            0.0000000000
     15162      5054  TIP3      H2             24.1185294280       17.0677475841      -16.8369163352  W2        5054            0.0000000000
     15163      5055  TIP3      OH2            17.9511394280       11.0288275841      -16.7292563352  W2        5055            0.0000000000
     15164      5055  TIP3      H1             18.8650594280       11.1077175841      -16.4558663352  W2        5055            0.0000000000
     15165      5055  TIP3      H2             17.9584494280       10.3417875841      -17.3956963352  W2        5055            0.0000000000
     15166      5056  TIP3      OH2            16.6001994280       16.4216775841      -11.6518663352  W2        5056            0.0000000000
     15167      5056  TIP3      H1             15.9529094280       15.9598475841      -12.1847463352  W2        5056            0.0000000000
     15168      5056  TIP3      H2             16.9546594280       15.7500075841      -11.0692463352  W2        5056            0.0000000000
     15169      5057  TIP3      OH2            17.4701194280       14.5023775841       -9.8472463352  W2        5057            0.0000000000
     15170      5057  TIP3      H1             17.1357994280       13.6221075841       -9.6752263352  W2        5057            0.0000000000
     15171      5057  TIP3      H2             17.6923594280       14.8478775841       -8.9826863352  W2        5057            0.0000000000
     15172      5058  TIP3      OH2            35.0185994280       15.3120175841       -6.8667663352  W2        5058            0.0000000000
     15173      5058  TIP3      H1             34.9972694280       15.4968575841       -5.9278263352  W2        5058            0.0000000000
     15174      5058  TIP3      H2             35.7092194280       15.8804175841       -7.2076263352  W2        5058            0.0000000000
     15175      5059  TIP3      OH2            34.5818894280       14.8791275841       -3.9448563352  W2        5059            0.0000000000
     15176      5059  TIP3      H1             34.0947594280       14.1435375841       -4.3161163352  W2        5059            0.0000000000
     15177      5059  TIP3      H2             35.1311594280       14.4855175841       -3.2669163352  W2        5059            0.0000000000
     15178      5060  TIP3      OH2            33.0326194280       10.6689375841        0.6931736648  W2        5060            0.0000000000
     15179      5060  TIP3      H1             32.1667294280       10.5639075841        1.0874036648  W2        5060            0.0000000000
     15180      5060  TIP3      H2             33.4092094280       11.4272675841        1.1396436648  W2        5060            0.0000000000
     15181      5061  TIP3      OH2            34.3335894280        8.9253075841      -13.7925763352  W2        5061            0.0000000000
     15182      5061  TIP3      H1             35.1837294280        9.3463975841      -13.6654163352  W2        5061            0.0000000000
     15183      5061  TIP3      H2             34.3390994280        8.1853175841      -13.1854363352  W2        5061            0.0000000000
     15184      5062  TIP3      OH2            34.7281494280        6.9790475841      -11.9690063352  W2        5062            0.0000000000
     15185      5062  TIP3      H1             34.0016094280        6.4993075841      -11.5712463352  W2        5062            0.0000000000
     15186      5062  TIP3      H2             35.3094794280        7.1845175841      -11.2368463352  W2        5062            0.0000000000
     15187      5063  TIP3      OH2            34.4872694280        9.7637975841       -7.0212463352  W2        5063            0.0000000000
     15188      5063  TIP3      H1             35.3206894280        9.3857975841       -7.3018863352  W2        5063            0.0000000000
     15189      5063  TIP3      H2             34.5992994280       10.7069175841       -7.1403363352  W2        5063            0.0000000000
     15190      5064  TIP3      OH2            32.9734994280       12.6415475841       -4.7144063352  W2        5064            0.0000000000
     15191      5064  TIP3      H1             32.3260294280       12.9666975841       -4.0888863352  W2        5064            0.0000000000
     15192      5064  TIP3      H2             32.4558994280       12.2013175841       -5.3885763352  W2        5064            0.0000000000
     15193      5065  TIP3      OH2            34.9964594280        6.8798975841      -15.5778763352  W2        5065            0.0000000000
     15194      5065  TIP3      H1             34.4745694280        7.2363075841      -16.2967863352  W2        5065            0.0000000000
     15195      5065  TIP3      H2             34.9633794280        7.5546775841      -14.8997863352  W2        5065            0.0000000000
     15196      5066  TIP3      OH2            33.3453594280        4.1194575841      -17.0271663352  W2        5066            0.0000000000
     15197      5066  TIP3      H1             33.4417994280        4.7861575841      -17.7071963352  W2        5066            0.0000000000
     15198      5066  TIP3      H2             33.2053194280        3.3040875841      -17.5086163352  W2        5066            0.0000000000
     15199      5067  TIP3      OH2            32.5148294280        5.4996975841      -11.4061363352  W2        5067            0.0000000000
     15200      5067  TIP3      H1             32.3647094280        4.5545575841      -11.4263563352  W2        5067            0.0000000000
     15201      5067  TIP3      H2             32.1612794280        5.7808375841      -10.5622263352  W2        5067            0.0000000000
     15202      5068  TIP3      OH2            17.5500694280        7.5779175841       -7.3957563352  W2        5068            0.0000000000
     15203      5068  TIP3      H1             17.7343594280        7.4960875841       -8.3314663352  W2        5068            0.0000000000
     15204      5068  TIP3      H2             18.3993594280        7.4536175841       -6.9721163352  W2        5068            0.0000000000
     15205      5069  TIP3      OH2            33.3711194280        7.4700275841       -1.7673063352  W2        5069            0.0000000000
     15206      5069  TIP3      H1             33.9538494280        6.7352575841       -1.5755863352  W2        5069            0.0000000000
     15207      5069  TIP3      H2             33.9350494280        8.2420575841       -1.7207263352  W2        5069            0.0000000000
     15208      5070  TIP3      OH2            34.8678294280        5.3726075841       -1.0827663352  W2        5070            0.0000000000
     15209      5070  TIP3      H1             34.0044994280        4.9938175841       -1.2482963352  W2        5070            0.0000000000
     15210      5070  TIP3      H2             35.4721994280        4.6340875841       -1.1571863352  W2        5070            0.0000000000
     15211      5071  TIP3      OH2            32.5927394280        1.5274375841      -17.9096163352  W2        5071            0.0000000000
     15212      5071  TIP3      H1             33.2033194280        1.1561175841      -17.2727963352  W2        5071            0.0000000000
     15213      5071  TIP3      H2             31.7558894280        1.1061275841      -17.7136163352  W2        5071            0.0000000000
     15214      5072  TIP3      OH2            32.2253094280        3.0822775841      -12.9436263352  W2        5072            0.0000000000
     15215      5072  TIP3      H1             32.5050194280        2.1753175841      -12.8194563352  W2        5072            0.0000000000
     15216      5072  TIP3      H2             32.9844794280        3.5164275841      -13.3327063352  W2        5072            0.0000000000
     15217      5073  TIP3      OH2            32.8371394280        3.6640175841       -7.5077363352  W2        5073            0.0000000000
     15218      5073  TIP3      H1             33.7699394280        3.8760075841       -7.5421363352  W2        5073            0.0000000000
     15219      5073  TIP3      H2             32.6018894280        3.7652275841       -6.5854363352  W2        5073            0.0000000000
     15220      5074  TIP3      OH2            32.8663294280        4.4005475841       -4.7317963352  W2        5074            0.0000000000
     15221      5074  TIP3      H1             32.0234594280        4.6685875841       -4.3658163352  W2        5074            0.0000000000
     15222      5074  TIP3      H2             33.3087594280        5.2227375841       -4.9426863352  W2        5074            0.0000000000
     15223      5075  TIP3      OH2            17.1475494280        2.8484175841       -1.2548763352  W2        5075            0.0000000000
     15224      5075  TIP3      H1             18.0670394280        2.7262475841       -1.0185663352  W2        5075            0.0000000000
     15225      5075  TIP3      H2             16.6979994280        2.0983875841       -0.8655263352  W2        5075            0.0000000000
     15226      5076  TIP3      OH2            35.1494894280       -1.6194324159        0.6217036648  W2        5076            0.0000000000
     15227      5076  TIP3      H1             35.4991894280       -2.2730824159        0.0161736648  W2        5076            0.0000000000
     15228      5076  TIP3      H2             35.2964394280       -0.7820224159        0.1819636648  W2        5076            0.0000000000
     15229      5077  TIP3      OH2            32.8387894280        0.3452075841      -12.8954263352  W2        5077            0.0000000000
     15230      5077  TIP3      H1             33.0212894280       -0.1036424159      -12.0699263352  W2        5077            0.0000000000
     15231      5077  TIP3      H2             32.2390794280       -0.2393524159      -13.3589663352  W2        5077            0.0000000000
     15232      5078  TIP3      OH2            18.3687994280        1.1605775841       -8.3635863352  W2        5078            0.0000000000
     15233      5078  TIP3      H1             18.8139594280        0.3688275841       -8.0616163352  W2        5078            0.0000000000
     15234      5078  TIP3      H2             18.8350994280        1.8770975841       -7.9330263352  W2        5078            0.0000000000
     15235      5079  TIP3      OH2            16.6728294280        4.1598775841       -7.2945663352  W2        5079            0.0000000000
     15236      5079  TIP3      H1             17.1648094280        3.9389275841       -8.0853663352  W2        5079            0.0000000000
     15237      5079  TIP3      H2             17.0349194280        5.0002175841       -7.0136163352  W2        5079            0.0000000000
     15238      5080  TIP3      OH2            34.6692094280        0.4900275841       -1.0291663352  W2        5080            0.0000000000
     15239      5080  TIP3      H1             33.7517794280        0.7607375841       -1.0648163352  W2        5080            0.0000000000
     15240      5080  TIP3      H2             34.7921494280       -0.0451324159       -1.8131963352  W2        5080            0.0000000000
     15241      5081  TIP3      OH2            34.7054094280        0.4130175841      -16.3673963352  W2        5081            0.0000000000
     15242      5081  TIP3      H1             35.1176694280       -0.3084124159      -16.8425963352  W2        5081            0.0000000000
     15243      5081  TIP3      H2             35.3870594280        1.0824775841      -16.3089663352  W2        5081            0.0000000000
     15244      5082  TIP3      OH2            16.9864794280        0.4177875841      -13.2403263352  W2        5082            0.0000000000
     15245      5082  TIP3      H1             16.0613194280        0.6264475841      -13.3697763352  W2        5082            0.0000000000
     15246      5082  TIP3      H2             17.4404694280        0.9018675841      -13.9300963352  W2        5082            0.0000000000
     15247      5083  TIP3      OH2            31.7571994280       15.4019575841      -11.2945863352  W2        5083            0.0000000000
     15248      5083  TIP3      H1             32.4094894280       15.0541675841      -11.9026763352  W2        5083            0.0000000000
     15249      5083  TIP3      H2             32.2675794280       15.8902775841      -10.6486163352  W2        5083            0.0000000000
     15250      5084  TIP3      OH2            16.9500194280       -0.8443124159       -4.8960763352  W2        5084            0.0000000000
     15251      5084  TIP3      H1             16.2850694280       -1.0902824159       -4.2529863352  W2        5084            0.0000000000
     15252      5084  TIP3      H2             16.5071494280       -0.2222724159       -5.4732763352  W2        5084            0.0000000000
     15253      5085  TIP3      OH2            19.1419494280       12.3310975841       -0.7514963352  W2        5085            0.0000000000
     15254      5085  TIP3      H1             18.3211994280       12.5057475841       -1.2120263352  W2        5085            0.0000000000
     15255      5085  TIP3      H2             18.8897294280       12.2575675841        0.1689436648  W2        5085            0.0000000000
     15256      5086  TIP3      OH2            22.0962394280       13.3052175841       -4.4930963352  W2        5086            0.0000000000
     15257      5086  TIP3      H1             21.6713494280       14.1150675841       -4.7756363352  W2        5086            0.0000000000
     15258      5086  TIP3      H2             23.0005194280       13.3906275841       -4.7951163352  W2        5086            0.0000000000
     15259      5087  TIP3      OH2            26.4073794280       14.7042175841       -1.5337263352  W2        5087            0.0000000000
     15260      5087  TIP3      H1             26.5921294280       14.3708275841       -0.6556963352  W2        5087            0.0000000000
     15261      5087  TIP3      H2             27.2538294280       15.0140775841       -1.8558063352  W2        5087            0.0000000000
     15262      5088  TIP3      OH2            28.7524194280       15.9901075841       -2.2895863352  W2        5088            0.0000000000
     15263      5088  TIP3      H1             29.4293094280       15.3573375841       -2.5296663352  W2        5088            0.0000000000
     15264      5088  TIP3      H2             29.0742994280       16.3911575841       -1.4822563352  W2        5088            0.0000000000
     15265      5089  TIP3      OH2            33.6697994280       -1.4203424159       -3.2100863352  W2        5089            0.0000000000
     15266      5089  TIP3      H1             32.8571494280       -1.0953124159       -3.5976163352  W2        5089            0.0000000000
     15267      5089  TIP3      H2             33.9026494280       -2.1804924159       -3.7431763352  W2        5089            0.0000000000
     15268      5090  TIP3      OH2            19.4979094280       16.5616075841       -4.4455663352  W2        5090            0.0000000000
     15269      5090  TIP3      H1             18.7775494280       17.0017075841       -4.8967963352  W2        5090            0.0000000000
     15270      5090  TIP3      H2             19.1323094280       16.3110775841       -3.5971663352  W2        5090            0.0000000000
     15271      5091  TIP3      OH2            21.9651694280       16.1619975841       -5.4158463352  W2        5091            0.0000000000
     15272      5091  TIP3      H1             21.1003894280       16.2338475841       -5.0118363352  W2        5091            0.0000000000
     15273      5091  TIP3      H2             21.9100694280       16.7087275841       -6.1995963352  W2        5091            0.0000000000
     15274      5092  TIP3      OH2            26.6757294280       16.0498875841       -6.2402463352  W2        5092            0.0000000000
     15275      5092  TIP3      H1             26.2191294280       16.5788575841       -6.8944063352  W2        5092            0.0000000000
     15276      5092  TIP3      H2             26.8385294280       16.6530275841       -5.5150163352  W2        5092            0.0000000000
     15277      5093  TIP3      OH2            29.0033594280       14.9278475841       -5.2952163352  W2        5093            0.0000000000
     15278      5093  TIP3      H1             28.0987294280       15.0928675841       -5.5610063352  W2        5093            0.0000000000
     15279      5093  TIP3      H2             29.4322194280       15.7810675841       -5.3608763352  W2        5093            0.0000000000
     15280      5094  TIP3      OH2            31.6075494280       16.4977575841       -5.0004363352  W2        5094            0.0000000000
     15281      5094  TIP3      H1             31.4257494280       17.4136475841       -5.2109463352  W2        5094            0.0000000000
     15282      5094  TIP3      H2             31.7843294280       16.0874675841       -5.8469763352  W2        5094            0.0000000000
     15283      5095  TIP3      OH2            18.9127194280       15.1848575841       -7.5353863352  W2        5095            0.0000000000
     15284      5095  TIP3      H1             18.8943194280       14.7593675841       -6.6781563352  W2        5095            0.0000000000
     15285      5095  TIP3      H2             19.7175094280       14.8663575841       -7.9441663352  W2        5095            0.0000000000
     15286      5096  TIP3      OH2            21.0540294280       13.8947275841       -8.8803963352  W2        5096            0.0000000000
     15287      5096  TIP3      H1             20.8350994280       12.9784675841       -8.7107963352  W2        5096            0.0000000000
     15288      5096  TIP3      H2             21.8782494280       14.0347675841       -8.4142563352  W2        5096            0.0000000000
     15289      5097  TIP3      OH2            23.5912794280       14.3646575841       -8.0315963352  W2        5097            0.0000000000
     15290      5097  TIP3      H1             23.8038494280       13.4765575841       -8.3185063352  W2        5097            0.0000000000
     15291      5097  TIP3      H2             23.6557894280       14.3304275841       -7.0771963352  W2        5097            0.0000000000
     15292      5098  TIP3      OH2            27.0996494280        0.0287175841       -8.8872663352  W2        5098            0.0000000000
     15293      5098  TIP3      H1             26.4253294280       -0.6007224159       -8.6316863352  W2        5098            0.0000000000
     15294      5098  TIP3      H2             27.6635694280       -0.4553924159       -9.4904763352  W2        5098            0.0000000000
     15295      5099  TIP3      OH2            32.2423694280       -1.8638824159       -8.7745563352  W2        5099            0.0000000000
     15296      5099  TIP3      H1             32.8461294280       -1.3163424159       -9.2764563352  W2        5099            0.0000000000
     15297      5099  TIP3      H2             31.3725694280       -1.5448424159       -9.0151463352  W2        5099            0.0000000000
     15298      5100  TIP3      OH2            33.9694094280       -0.7250124159      -10.4414663352  W2        5100            0.0000000000
     15299      5100  TIP3      H1             34.5811594280       -1.2394424159      -10.9681063352  W2        5100            0.0000000000
     15300      5100  TIP3      H2             34.3517494280        0.1521975841      -10.4180263352  W2        5100            0.0000000000
     15301      5101  TIP3      OH2            19.4263994280       -1.3372524159      -11.0652763352  W2        5101            0.0000000000
     15302      5101  TIP3      H1             18.6493794280       -1.5717624159      -11.5726863352  W2        5101            0.0000000000
     15303      5101  TIP3      H2             19.9567594280       -2.1340424159      -11.0564763352  W2        5101            0.0000000000
     15304      5102  TIP3      OH2            18.2627394280       -1.5394424159      -15.2616663352  W2        5102            0.0000000000
     15305      5102  TIP3      H1             18.7018094280       -0.9283924159      -15.8533163352  W2        5102            0.0000000000
     15306      5102  TIP3      H2             17.6289794280       -1.0010324159      -14.7876663352  W2        5102            0.0000000000
     15307      5103  TIP3      OH2            24.0056594280       -1.4105424159      -11.2519663352  W2        5103            0.0000000000
     15308      5103  TIP3      H1             24.8799994280       -1.0221124159      -11.2815363352  W2        5103            0.0000000000
     15309      5103  TIP3      H2             23.8697394280       -1.6257624159      -10.3292463352  W2        5103            0.0000000000
     15310      5104  TIP3      OH2            29.5624994280       -1.3805624159       -9.6027963352  W2        5104            0.0000000000
     15311      5104  TIP3      H1             29.6386594280       -1.2854024159      -10.5521963352  W2        5104            0.0000000000
     15312      5104  TIP3      H2             29.2874194280       -2.2882724159       -9.4738863352  W2        5104            0.0000000000
     15313      5105  TIP3      OH2            30.9157594280       -1.3547824159      -13.9102963352  W2        5105            0.0000000000
     15314      5105  TIP3      H1             30.2128694280       -0.7398624159      -14.1201563352  W2        5105            0.0000000000
     15315      5105  TIP3      H2             30.4708994280       -2.1921124159      -13.7792063352  W2        5105            0.0000000000
     15316      5106  TIP3      OH2            18.1636894280       14.4087775841      -14.3641563352  W2        5106            0.0000000000
     15317      5106  TIP3      H1             17.4786794280       14.3706675841      -15.0316463352  W2        5106            0.0000000000
     15318      5106  TIP3      H2             18.1674094280       15.3215375841      -14.0759463352  W2        5106            0.0000000000
     15319      5107  TIP3      OH2            20.1236494280        0.3767075841      -16.8192563352  W2        5107            0.0000000000
     15320      5107  TIP3      H1             20.6149894280       -0.2530524159      -17.3467063352  W2        5107            0.0000000000
     15321      5107  TIP3      H2             20.7472794280        0.6726475841      -16.1561363352  W2        5107            0.0000000000
     15322      5108  TIP3      OH2            25.1496594280        0.6698575841      -14.3622063352  W2        5108            0.0000000000
     15323      5108  TIP3      H1             25.3277894280        0.0231775841      -13.6793463352  W2        5108            0.0000000000
     15324      5108  TIP3      H2             25.0962794280        1.5036275841      -13.8950963352  W2        5108            0.0000000000
     15325      5109  TIP3      OH2            27.0280394280       15.6182675841      -15.9665363352  W2        5109            0.0000000000
     15326      5109  TIP3      H1             27.8940594280       15.9850075841      -16.1447163352  W2        5109            0.0000000000
     15327      5109  TIP3      H2             26.7813194280       15.1790675841      -16.7804563352  W2        5109            0.0000000000
     15328      5110  TIP3      OH2            33.7369994280       15.1812975841      -13.2874263352  W2        5110            0.0000000000
     15329      5110  TIP3      H1             33.5427094280       14.4335075841      -13.8524663352  W2        5110            0.0000000000
     15330      5110  TIP3      H2             33.6980094280       15.9393075841      -13.8706363352  W2        5110            0.0000000000
     15331      5111  TIP3      OH2            19.3841994280       -0.8230624159       -1.5476563352  W2        5111            0.0000000000
     15332      5111  TIP3      H1             19.0180194280       -1.5888024159       -1.1051863352  W2        5111            0.0000000000
     15333      5111  TIP3      H2             20.2970494280       -0.7940424159       -1.2611463352  W2        5111            0.0000000000
     15334      5112  TIP3      OH2            21.3572794280       -1.4726224159       -0.0119463352  W2        5112            0.0000000000
     15335      5112  TIP3      H1             22.2556394280       -1.7466024159       -0.1966063352  W2        5112            0.0000000000
     15336      5112  TIP3      H2             20.9705894280       -2.2150224159        0.4523136648  W2        5112            0.0000000000
     15337      5113  TIP3      OH2            19.9818094280       15.3288575841      -17.3389463352  W2        5113            0.0000000000
     15338      5113  TIP3      H1             19.7142694280       15.6151475841      -16.4656363352  W2        5113            0.0000000000
     15339      5113  TIP3      H2             20.7530694280       14.7827775841      -17.1866963352  W2        5113            0.0000000000
     15340      5114  TIP3      OH2            29.7785094280       -2.1400924159        0.1703336648  W2        5114            0.0000000000
     15341      5114  TIP3      H1             29.8552294280       -2.5660224159        1.0241036648  W2        5114            0.0000000000
     15342      5114  TIP3      H2             30.6721694280       -2.1266224159       -0.1723163352  W2        5114            0.0000000000
     15343      5115  TIP3      OH2            32.9546194280       13.9325375841       -1.1372463352  W2        5115            0.0000000000
     15344      5115  TIP3      H1             32.1728094280       13.7463375841       -1.6571863352  W2        5115            0.0000000000
     15345      5115  TIP3      H2             32.8826094280       14.8619675841       -0.9199963352  W2        5115            0.0000000000
     15346      5116  TIP3      OH2            47.3606594280        7.8189775841      -11.1065263352  W2        5116            0.0000000000
     15347      5116  TIP3      H1             47.4497694280        8.7627975841      -11.2388163352  W2        5116            0.0000000000
     15348      5116  TIP3      H2             46.7224194280        7.5436175841      -11.7645863352  W2        5116            0.0000000000
     15349      5117  TIP3      OH2            46.2937894280        7.0740475841       -7.6877063352  W2        5117            0.0000000000
     15350      5117  TIP3      H1             46.2555394280        6.4276775841       -6.9827463352  W2        5117            0.0000000000
     15351      5117  TIP3      H2             45.9714394280        6.6074875841       -8.4588363352  W2        5117            0.0000000000
     15352      5118  TIP3      OH2            38.6622894280        6.6882575841       -6.0947163352  W2        5118            0.0000000000
     15353      5118  TIP3      H1             38.7034994280        6.0625875841       -5.3714763352  W2        5118            0.0000000000
     15354      5118  TIP3      H2             39.3650594280        7.3121175841       -5.9126763352  W2        5118            0.0000000000
     15355      5119  TIP3      OH2            49.9998094280       10.0130875841       -9.3861963352  W2        5119            0.0000000000
     15356      5119  TIP3      H1             49.5590794280        9.2926875841       -8.9356363352  W2        5119            0.0000000000
     15357      5119  TIP3      H2             49.9867794280       10.7338075841       -8.7564263352  W2        5119            0.0000000000
     15358      5120  TIP3      OH2            39.5855994280       11.1381475841       -7.5598063352  W2        5120            0.0000000000
     15359      5120  TIP3      H1             39.2161194280       10.3361975841       -7.9293763352  W2        5120            0.0000000000
     15360      5120  TIP3      H2             40.5267094280       10.9696375841       -7.5134663352  W2        5120            0.0000000000
     15361      5121  TIP3      OH2            36.1956494280        4.7984075841      -12.1669263352  W2        5121            0.0000000000
     15362      5121  TIP3      H1             35.7479894280        5.6442775841      -12.1852763352  W2        5121            0.0000000000
     15363      5121  TIP3      H2             35.6347694280        4.2188275841      -12.6824163352  W2        5121            0.0000000000
     15364      5122  TIP3      OH2            36.9062594280        6.9603675841      -10.0411263352  W2        5122            0.0000000000
     15365      5122  TIP3      H1             37.1196094280        6.1905275841       -9.5138263352  W2        5122            0.0000000000
     15366      5122  TIP3      H2             37.6440194280        7.0500375841      -10.6443663352  W2        5122            0.0000000000
     15367      5123  TIP3      OH2            47.1113594280       15.1172575841       -9.1741563352  W2        5123            0.0000000000
     15368      5123  TIP3      H1             47.7309994280       14.4407275841       -9.4472363352  W2        5123            0.0000000000
     15369      5123  TIP3      H2             46.9030994280       14.8993375841       -8.2656663352  W2        5123            0.0000000000
     15370      5124  TIP3      OH2            44.6832294280        9.5061875841       -7.2816063352  W2        5124            0.0000000000
     15371      5124  TIP3      H1             44.9870194280        8.8203275841       -7.8761963352  W2        5124            0.0000000000
     15372      5124  TIP3      H2             45.4046294280        9.6250575841       -6.6638063352  W2        5124            0.0000000000
     15373      5125  TIP3      OH2            53.3462094280        1.1077175841       -6.4209863352  W2        5125            0.0000000000
     15374      5125  TIP3      H1             53.3954294280        1.7178375841       -5.6850763352  W2        5125            0.0000000000
     15375      5125  TIP3      H2             53.7717194280        1.5688075841       -7.1438763352  W2        5125            0.0000000000
     15376      5126  TIP3      OH2            47.8239294280        3.9004275841       -6.9541263352  W2        5126            0.0000000000
     15377      5126  TIP3      H1             47.9665194280        2.9541275841       -6.9339663352  W2        5126            0.0000000000
     15378      5126  TIP3      H2             47.7178294280        4.1074075841       -7.8826363352  W2        5126            0.0000000000
     15379      5127  TIP3      OH2            40.9787594280        2.0020675841       -9.6816463352  W2        5127            0.0000000000
     15380      5127  TIP3      H1             41.0218694280        2.8619175841      -10.1000163352  W2        5127            0.0000000000
     15381      5127  TIP3      H2             40.5211694280        1.4495375841      -10.3153263352  W2        5127            0.0000000000
     15382      5128  TIP3      OH2            48.7010294280        2.1326275841      -11.2808163352  W2        5128            0.0000000000
     15383      5128  TIP3      H1             49.3474594280        1.8039475841      -10.6560563352  W2        5128            0.0000000000
     15384      5128  TIP3      H2             49.2109694280        2.6505275841      -11.9036763352  W2        5128            0.0000000000
     15385      5129  TIP3      OH2            37.5989094280        4.3986475841       -8.9195063352  W2        5129            0.0000000000
     15386      5129  TIP3      H1             38.2525694280        3.8488175841       -8.4874963352  W2        5129            0.0000000000
     15387      5129  TIP3      H2             37.6228394280        4.1245475841       -9.8363063352  W2        5129            0.0000000000
     15388      5130  TIP3      OH2            42.7553594280        5.9487775841       -9.7043563352  W2        5130            0.0000000000
     15389      5130  TIP3      H1             43.3714594280        5.4223175841       -9.1949563352  W2        5130            0.0000000000
     15390      5130  TIP3      H2             42.1692394280        5.3086475841      -10.1079963352  W2        5130            0.0000000000
     15391      5131  TIP3      OH2            53.7376694280        2.5856375841       -4.1850063352  W2        5131            0.0000000000
     15392      5131  TIP3      H1             53.0491294280        3.2437075841       -4.2803463352  W2        5131            0.0000000000
     15393      5131  TIP3      H2             53.7531294280        2.3884275841       -3.2484663352  W2        5131            0.0000000000
     15394      5132  TIP3      OH2            39.7889494280        0.9199075841       -5.6075663352  W2        5132            0.0000000000
     15395      5132  TIP3      H1             39.5701194280        1.4499675841       -6.3739663352  W2        5132            0.0000000000
     15396      5132  TIP3      H2             39.1210394280        1.1464575841       -4.9604263352  W2        5132            0.0000000000
     15397      5133  TIP3      OH2            47.1579294280       10.4200175841      -12.0636563352  W2        5133            0.0000000000
     15398      5133  TIP3      H1             46.8624394280       10.0972475841      -12.9149663352  W2        5133            0.0000000000
     15399      5133  TIP3      H2             46.8337094280       11.3196875841      -12.0223963352  W2        5133            0.0000000000
     15400      5134  TIP3      OH2            42.3580894280        8.5954775841       -5.3201963352  W2        5134            0.0000000000
     15401      5134  TIP3      H1             41.6179994280        9.1936275841       -5.2166763352  W2        5134            0.0000000000
     15402      5134  TIP3      H2             43.0720394280        9.1494375841       -5.6358363352  W2        5134            0.0000000000
     15403      5135  TIP3      OH2            50.4648694280        1.4235575841       -9.3002263352  W2        5135            0.0000000000
     15404      5135  TIP3      H1             50.2496694280        0.6578975841       -8.7676263352  W2        5135            0.0000000000
     15405      5135  TIP3      H2             51.1206094280        1.8960175841       -8.7873763352  W2        5135            0.0000000000
     15406      5136  TIP3      OH2            39.3826794280        2.8120875841       -7.6553463352  W2        5136            0.0000000000
     15407      5136  TIP3      H1             39.9963094280        3.4448475841       -7.2821063352  W2        5136            0.0000000000
     15408      5136  TIP3      H2             39.8947494280        2.3395875841       -8.3116563352  W2        5136            0.0000000000
     15409      5137  TIP3      OH2            40.7655194280       10.5597775841       -4.5330463352  W2        5137            0.0000000000
     15410      5137  TIP3      H1             40.7602794280       11.4391275841       -4.9111163352  W2        5137            0.0000000000
     15411      5137  TIP3      H2             39.9119294280       10.4761875841       -4.1080563352  W2        5137            0.0000000000
     15412      5138  TIP3      OH2            36.8866094280       10.2305675841      -13.7511163352  W2        5138            0.0000000000
     15413      5138  TIP3      H1             36.6146994280       10.4596675841      -14.6398263352  W2        5138            0.0000000000
     15414      5138  TIP3      H2             36.9321794280       11.0684475841      -13.2905863352  W2        5138            0.0000000000
     15415      5139  TIP3      OH2            50.5115794280       11.8521575841       -7.0382663352  W2        5139            0.0000000000
     15416      5139  TIP3      H1             49.5699494280       11.9105475841       -6.8765763352  W2        5139            0.0000000000
     15417      5139  TIP3      H2             50.7881894280       12.7582075841       -7.1752963352  W2        5139            0.0000000000
     15418      5140  TIP3      OH2            50.8122794280        0.1386875841       -5.6208763352  W2        5140            0.0000000000
     15419      5140  TIP3      H1             50.0761994280        0.7493975841       -5.6587463352  W2        5140            0.0000000000
     15420      5140  TIP3      H2             51.4956794280        0.5535875841       -6.1472363352  W2        5140            0.0000000000
     15421      5141  TIP3      OH2            43.8154194280       -1.7745824159       -8.1550763352  W2        5141            0.0000000000
     15422      5141  TIP3      H1             43.6978394280       -2.7229824159       -8.2092463352  W2        5141            0.0000000000
     15423      5141  TIP3      H2             42.9604294280       -1.4419724159       -7.8819663352  W2        5141            0.0000000000
     15424      5142  TIP3      OH2            48.7636994280       13.6335075841      -10.4131063352  W2        5142            0.0000000000
     15425      5142  TIP3      H1             49.1889294280       12.9262975841      -10.8981463352  W2        5142            0.0000000000
     15426      5142  TIP3      H2             49.0806994280       14.4347775841      -10.8298863352  W2        5142            0.0000000000
     15427      5143  TIP3      OH2            49.9233494280       11.5343575841      -11.9044463352  W2        5143            0.0000000000
     15428      5143  TIP3      H1             49.6658294280       10.8443675841      -12.5158563352  W2        5143            0.0000000000
     15429      5143  TIP3      H2             49.9944294280       11.0914775841      -11.0588563352  W2        5143            0.0000000000
     15430      5144  TIP3      OH2            51.6093694280       10.1010275841       -3.4270963352  W2        5144            0.0000000000
     15431      5144  TIP3      H1             51.7489994280        9.5092775841       -4.1663963352  W2        5144            0.0000000000
     15432      5144  TIP3      H2             51.7766494280       10.9736175841       -3.7832163352  W2        5144            0.0000000000
     15433      5145  TIP3      OH2            46.0819094280        7.0629775841      -13.6544963352  W2        5145            0.0000000000
     15434      5145  TIP3      H1             45.3704594280        7.5979475841      -14.0064463352  W2        5145            0.0000000000
     15435      5145  TIP3      H2             46.7728694280        7.1181875841      -14.3146063352  W2        5145            0.0000000000
     15436      5146  TIP3      OH2            46.1358294280        5.5204075841      -16.6159963352  W2        5146            0.0000000000
     15437      5146  TIP3      H1             46.8368194280        5.5430975841      -15.9645963352  W2        5146            0.0000000000
     15438      5146  TIP3      H2             46.4381194280        4.8923775841      -17.2720663352  W2        5146            0.0000000000
     15439      5147  TIP3      OH2            53.4512994280        6.4408275841       -5.3610563352  W2        5147            0.0000000000
     15440      5147  TIP3      H1             52.7987094280        7.1353875841       -5.2719663352  W2        5147            0.0000000000
     15441      5147  TIP3      H2             53.9163294280        6.6509175841       -6.1708963352  W2        5147            0.0000000000
     15442      5148  TIP3      OH2            49.4876794280        7.2723075841      -12.7029063352  W2        5148            0.0000000000
     15443      5148  TIP3      H1             48.7557794280        7.5006775841      -12.1298463352  W2        5148            0.0000000000
     15444      5148  TIP3      H2             49.9348994280        6.5585775841      -12.2481563352  W2        5148            0.0000000000
     15445      5149  TIP3      OH2            49.3850294280        5.4465675841       -3.6352063352  W2        5149            0.0000000000
     15446      5149  TIP3      H1             49.4649394280        6.2100075841       -3.0633563352  W2        5149            0.0000000000
     15447      5149  TIP3      H2             48.7837994280        5.7258075841       -4.3256963352  W2        5149            0.0000000000
     15448      5150  TIP3      OH2            41.1330494280        7.9029275841      -10.8204063352  W2        5150            0.0000000000
     15449      5150  TIP3      H1             40.8025694280        7.5322675841      -11.6387063352  W2        5150            0.0000000000
     15450      5150  TIP3      H2             41.7214594280        7.2323275841      -10.4735763352  W2        5150            0.0000000000
     15451      5151  TIP3      OH2            42.4997994280       11.3309875841       -8.1391863352  W2        5151            0.0000000000
     15452      5151  TIP3      H1             42.4049294280       10.7522975841       -8.8957263352  W2        5151            0.0000000000
     15453      5151  TIP3      H2             43.2291594280       10.9595575841       -7.6429063352  W2        5151            0.0000000000
     15454      5152  TIP3      OH2            41.4995994280        6.6714875841       -7.1869063352  W2        5152            0.0000000000
     15455      5152  TIP3      H1             42.0648494280        6.7929075841       -7.9497863352  W2        5152            0.0000000000
     15456      5152  TIP3      H2             41.8184894280        7.3089875841       -6.5480563352  W2        5152            0.0000000000
     15457      5153  TIP3      OH2            47.8088194280       12.1746775841       -6.4528563352  W2        5153            0.0000000000
     15458      5153  TIP3      H1             47.5684794280       12.8369875841       -5.8049363352  W2        5153            0.0000000000
     15459      5153  TIP3      H2             47.6106394280       11.3401975841       -6.0278963352  W2        5153            0.0000000000
     15460      5154  TIP3      OH2            42.3796694280       11.0707575841       -2.4697163352  W2        5154            0.0000000000
     15461      5154  TIP3      H1             42.0684194280       11.8530775841       -2.0143963352  W2        5154            0.0000000000
     15462      5154  TIP3      H2             41.7296894280       10.9176675841       -3.1555163352  W2        5154            0.0000000000
     15463      5155  TIP3      OH2            48.3586294280        6.4345975841      -15.0177863352  W2        5155            0.0000000000
     15464      5155  TIP3      H1             48.9381794280        6.5846275841      -14.2708963352  W2        5155            0.0000000000
     15465      5155  TIP3      H2             48.7726294280        6.9053375841      -15.7411463352  W2        5155            0.0000000000
     15466      5156  TIP3      OH2            39.2996594280        7.2688675841       -3.2411463352  W2        5156            0.0000000000
     15467      5156  TIP3      H1             39.3699794280        7.9195475841       -2.5426463352  W2        5156            0.0000000000
     15468      5156  TIP3      H2             38.4088794280        7.3716175841       -3.5760563352  W2        5156            0.0000000000
     15469      5157  TIP3      OH2            46.0851194280       13.1714475841      -11.5824763352  W2        5157            0.0000000000
     15470      5157  TIP3      H1             46.5588794280       13.4670775841      -10.8050563352  W2        5157            0.0000000000
     15471      5157  TIP3      H2             45.5220494280       13.9096075841      -11.8155163352  W2        5157            0.0000000000
     15472      5158  TIP3      OH2            40.6192594280       13.1422575841       -1.7063363352  W2        5158            0.0000000000
     15473      5158  TIP3      H1             40.6267894280       13.0062275841       -2.6537863352  W2        5158            0.0000000000
     15474      5158  TIP3      H2             39.7032994280       13.0250675841       -1.4543363352  W2        5158            0.0000000000
     15475      5159  TIP3      OH2            52.0574694280       -1.8153624159      -15.2048163352  W2        5159            0.0000000000
     15476      5159  TIP3      H1             51.1575394280       -1.6764624159      -14.9097563352  W2        5159            0.0000000000
     15477      5159  TIP3      H2             52.3093094280       -0.9839024159      -15.6066463352  W2        5159            0.0000000000
     15478      5160  TIP3      OH2            40.1233194280        6.9723575841      -13.2311263352  W2        5160            0.0000000000
     15479      5160  TIP3      H1             39.8314494280        7.7405275841      -13.7219963352  W2        5160            0.0000000000
     15480      5160  TIP3      H2             39.4488394280        6.3129775841      -13.3939863352  W2        5160            0.0000000000
     15481      5161  TIP3      OH2            53.2466094280       12.5508775841      -16.8284263352  W2        5161            0.0000000000
     15482      5161  TIP3      H1             53.3199594280       13.4898975841      -16.6578963352  W2        5161            0.0000000000
     15483      5161  TIP3      H2             54.1521194280       12.2457375841      -16.8846963352  W2        5161            0.0000000000
     15484      5162  TIP3      OH2            36.2163294280        9.3352775841       -4.4161463352  W2        5162            0.0000000000
     15485      5162  TIP3      H1             35.7151694280        9.3072175841       -5.2311763352  W2        5162            0.0000000000
     15486      5162  TIP3      H2             36.2216994280        8.4295975841       -4.1064163352  W2        5162            0.0000000000
     15487      5163  TIP3      OH2            35.9665994280       12.1156575841       -7.5321263352  W2        5163            0.0000000000
     15488      5163  TIP3      H1             36.9126594280       11.9713575841       -7.5511763352  W2        5163            0.0000000000
     15489      5163  TIP3      H2             35.8542294280       12.8999375841       -6.9950063352  W2        5163            0.0000000000
     15490      5164  TIP3      OH2            54.1644494280       12.7816275841       -1.8497563352  W2        5164            0.0000000000
     15491      5164  TIP3      H1             54.1151294280       11.8264375841       -1.8869963352  W2        5164            0.0000000000
     15492      5164  TIP3      H2             53.3376794280       13.0491575841       -1.4483763352  W2        5164            0.0000000000
     15493      5165  TIP3      OH2            45.1428494280       12.3555475841       -2.9736163352  W2        5165            0.0000000000
     15494      5165  TIP3      H1             45.2303094280       13.1820075841       -2.4987063352  W2        5165            0.0000000000
     15495      5165  TIP3      H2             44.2793594280       12.0259275841       -2.7246863352  W2        5165            0.0000000000
     15496      5166  TIP3      OH2            45.5574294280       16.1279175841      -13.1675563352  W2        5166            0.0000000000
     15497      5166  TIP3      H1             45.4820294280       16.0066375841      -14.1140363352  W2        5166            0.0000000000
     15498      5166  TIP3      H2             45.5902994280       17.0771875841      -13.0490963352  W2        5166            0.0000000000
     15499      5167  TIP3      OH2            39.2108094280       14.9166175841      -11.3866563352  W2        5167            0.0000000000
     15500      5167  TIP3      H1             39.3628494280       14.5686575841      -10.5080063352  W2        5167            0.0000000000
     15501      5167  TIP3      H2             38.3598494280       14.5603475841      -11.6419363352  W2        5167            0.0000000000
     15502      5168  TIP3      OH2            48.6590294280       15.2819375841      -16.1653163352  W2        5168            0.0000000000
     15503      5168  TIP3      H1             49.0338694280       14.5375475841      -16.6360563352  W2        5168            0.0000000000
     15504      5168  TIP3      H2             48.6633994280       15.0119975841      -15.2469863352  W2        5168            0.0000000000
     15505      5169  TIP3      OH2            48.3278394280       15.2076475841      -13.4160963352  W2        5169            0.0000000000
     15506      5169  TIP3      H1             47.3928194280       15.3078375841      -13.2373963352  W2        5169            0.0000000000
     15507      5169  TIP3      H2             48.6080294280       14.4982475841      -12.8377763352  W2        5169            0.0000000000
     15508      5170  TIP3      OH2            51.3164294280        4.2748775841       -1.3695363352  W2        5170            0.0000000000
     15509      5170  TIP3      H1             50.9091094280        4.7554375841       -2.0902063352  W2        5170            0.0000000000
     15510      5170  TIP3      H2             51.3569994280        3.3694775841       -1.6774563352  W2        5170            0.0000000000
     15511      5171  TIP3      OH2            38.4653794280       10.6588175841       -3.3728663352  W2        5171            0.0000000000
     15512      5171  TIP3      H1             38.6815094280       10.2973775841       -2.5132863352  W2        5171            0.0000000000
     15513      5171  TIP3      H2             37.6098494280       10.2841975841       -3.5825163352  W2        5171            0.0000000000
     15514      5172  TIP3      OH2            41.0841794280       -0.8711324159       -7.3774463352  W2        5172            0.0000000000
     15515      5172  TIP3      H1             40.2225494280       -0.9583124159       -7.7851563352  W2        5172            0.0000000000
     15516      5172  TIP3      H2             41.0617494280       -0.0151224159       -6.9496863352  W2        5172            0.0000000000
     15517      5173  TIP3      OH2            45.7469594280       -1.1490924159       -4.0027463352  W2        5173            0.0000000000
     15518      5173  TIP3      H1             46.1672694280       -1.5643824159       -3.2496863352  W2        5173            0.0000000000
     15519      5173  TIP3      H2             44.8139194280       -1.3277624159       -3.8855463352  W2        5173            0.0000000000
     15520      5174  TIP3      OH2            49.0734494280        2.6064275841       -3.1492963352  W2        5174            0.0000000000
     15521      5174  TIP3      H1             48.5593994280        2.4806475841       -2.3516963352  W2        5174            0.0000000000
     15522      5174  TIP3      H2             48.9179194280        3.5187375841       -3.3936763352  W2        5174            0.0000000000
     15523      5175  TIP3      OH2            49.8359394280        7.4674275841      -17.3879963352  W2        5175            0.0000000000
     15524      5175  TIP3      H1             49.8780194280        7.2448175841      -18.3179963352  W2        5175            0.0000000000
     15525      5175  TIP3      H2             50.6851494280        7.8661375841      -17.1980063352  W2        5175            0.0000000000
     15526      5176  TIP3      OH2            45.4086894280        1.3432475841      -16.7176663352  W2        5176            0.0000000000
     15527      5176  TIP3      H1             45.1551694280        1.3624075841      -15.7948563352  W2        5176            0.0000000000
     15528      5176  TIP3      H2             45.1518994280        0.4717875841      -17.0190463352  W2        5176            0.0000000000
     15529      5177  TIP3      OH2            41.1751894280        4.0943175841       -6.2824263352  W2        5177            0.0000000000
     15530      5177  TIP3      H1             40.5333994280        4.0540475841       -5.5734163352  W2        5177            0.0000000000
     15531      5177  TIP3      H2             41.2123894280        5.0207875841       -6.5201263352  W2        5177            0.0000000000
     15532      5178  TIP3      OH2            41.1720994280        4.3153275841      -11.3704263352  W2        5178            0.0000000000
     15533      5178  TIP3      H1             40.2793894280        3.9749375841      -11.4290463352  W2        5178            0.0000000000
     15534      5178  TIP3      H2             41.6227594280        3.9384175841      -12.1261063352  W2        5178            0.0000000000
     15535      5179  TIP3      OH2            46.7076494280        4.7313575841      -12.5533463352  W2        5179            0.0000000000
     15536      5179  TIP3      H1             46.2986794280        5.5462175841      -12.8448663352  W2        5179            0.0000000000
     15537      5179  TIP3      H2             47.4282694280        4.5913675841      -13.1676363352  W2        5179            0.0000000000
     15538      5180  TIP3      OH2            45.8098094280        4.9069975841       -1.0652763352  W2        5180            0.0000000000
     15539      5180  TIP3      H1             45.2471894280        4.2021575841       -0.7444963352  W2        5180            0.0000000000
     15540      5180  TIP3      H2             46.6361494280        4.7861875841       -0.5975163352  W2        5180            0.0000000000
     15541      5181  TIP3      OH2            47.7124194280        4.1773975841       -9.7393763352  W2        5181            0.0000000000
     15542      5181  TIP3      H1             47.5168694280        4.7830775841      -10.4543163352  W2        5181            0.0000000000
     15543      5181  TIP3      H2             47.8936794280        3.3439175841      -10.1737463352  W2        5181            0.0000000000
     15544      5182  TIP3      OH2            38.9252394280        4.4146675841       -4.4152263352  W2        5182            0.0000000000
     15545      5182  TIP3      H1             38.8871794280        4.8148275841       -3.5465163352  W2        5182            0.0000000000
     15546      5182  TIP3      H2             38.4343494280        3.5979075841       -4.3249363352  W2        5182            0.0000000000
     15547      5183  TIP3      OH2            42.2909794280        1.7888975841      -17.6166263352  W2        5183            0.0000000000
     15548      5183  TIP3      H1             41.8600494280        1.3439075841      -16.8868863352  W2        5183            0.0000000000
     15549      5183  TIP3      H2             41.5728494280        2.1605275841      -18.1288763352  W2        5183            0.0000000000
     15550      5184  TIP3      OH2            35.5333194280        1.5308475841      -10.5647563352  W2        5184            0.0000000000
     15551      5184  TIP3      H1             36.1640894280        1.5020575841       -9.8453663352  W2        5184            0.0000000000
     15552      5184  TIP3      H2             35.9827494280        1.1057175841      -11.2951663352  W2        5184            0.0000000000
     15553      5185  TIP3      OH2            36.8075294280        2.2770475841      -15.1407163352  W2        5185            0.0000000000
     15554      5185  TIP3      H1             37.2816994280        2.8680375841      -15.7256263352  W2        5185            0.0000000000
     15555      5185  TIP3      H2             36.0901694280        2.8073375841      -14.7937063352  W2        5185            0.0000000000
     15556      5186  TIP3      OH2            46.9763394280        5.8155275841       -5.0681363352  W2        5186            0.0000000000
     15557      5186  TIP3      H1             47.2998194280        5.1844975841       -5.7110863352  W2        5186            0.0000000000
     15558      5186  TIP3      H2             46.5362694280        5.2807475841       -4.4073963352  W2        5186            0.0000000000
     15559      5187  TIP3      OH2            43.7536294280        1.7430775841      -10.2840163352  W2        5187            0.0000000000
     15560      5187  TIP3      H1             42.8427394280        1.7997575841       -9.9954163352  W2        5187            0.0000000000
     15561      5187  TIP3      H2             44.2589194280        1.6826275841       -9.4732963352  W2        5187            0.0000000000
     15562      5188  TIP3      OH2            38.5819694280        3.3717075841      -11.4572563352  W2        5188            0.0000000000
     15563      5188  TIP3      H1             37.6927694280        3.4712575841      -11.7972963352  W2        5188            0.0000000000
     15564      5188  TIP3      H2             38.8784594280        2.5300075841      -11.8034663352  W2        5188            0.0000000000
     15565      5189  TIP3      OH2            42.2351494280        3.3719675841      -13.8007963352  W2        5189            0.0000000000
     15566      5189  TIP3      H1             43.1666994280        3.5009675841      -13.6224863352  W2        5189            0.0000000000
     15567      5189  TIP3      H2             42.0201794280        4.0413975841      -14.4503263352  W2        5189            0.0000000000
     15568      5190  TIP3      OH2            48.1588194280        0.9777075841       -7.0198363352  W2        5190            0.0000000000
     15569      5190  TIP3      H1             47.4819794280        1.1090175841       -6.3558663352  W2        5190            0.0000000000
     15570      5190  TIP3      H2             47.6733094280        0.8226575841       -7.8300663352  W2        5190            0.0000000000
     15571      5191  TIP3      OH2            40.9091694280        4.5661875841      -16.2341863352  W2        5191            0.0000000000
     15572      5191  TIP3      H1             40.3666794280        4.1865675841      -16.9254263352  W2        5191            0.0000000000
     15573      5191  TIP3      H2             41.7426594280        4.7606575841      -16.6627763352  W2        5191            0.0000000000
     15574      5192  TIP3      OH2            51.4463294280       16.6492475841       -0.7430763352  W2        5192            0.0000000000
     15575      5192  TIP3      H1             51.6461994280       17.0734375841       -1.5775463352  W2        5192            0.0000000000
     15576      5192  TIP3      H2             52.1016994280       16.9930675841       -0.1360363352  W2        5192            0.0000000000
     15577      5193  TIP3      OH2            39.0443094280        9.1233775841       -1.1350263352  W2        5193            0.0000000000
     15578      5193  TIP3      H1             39.7765494280        9.3779675841       -0.5735763352  W2        5193            0.0000000000
     15579      5193  TIP3      H2             38.2641794280        9.3279175841       -0.6194863352  W2        5193            0.0000000000
     15580      5194  TIP3      OH2            45.0735994280        4.5303775841       -8.3970563352  W2        5194            0.0000000000
     15581      5194  TIP3      H1             45.6379394280        3.9840375841       -8.9440963352  W2        5194            0.0000000000
     15582      5194  TIP3      H2             44.9259394280        4.0085675841       -7.6082963352  W2        5194            0.0000000000
     15583      5195  TIP3      OH2            40.0755694280        0.6669875841      -11.9785763352  W2        5195            0.0000000000
     15584      5195  TIP3      H1             39.7585194280       -0.2354824159      -12.0140363352  W2        5195            0.0000000000
     15585      5195  TIP3      H2             40.8569794280        0.6687275841      -12.5314163352  W2        5195            0.0000000000
     15586      5196  TIP3      OH2            43.7001894280        2.9189875841       -5.9830163352  W2        5196            0.0000000000
     15587      5196  TIP3      H1             42.8647194280        3.3729375841       -5.8727763352  W2        5196            0.0000000000
     15588      5196  TIP3      H2             44.2242494280        3.1948375841       -5.2310263352  W2        5196            0.0000000000
     15589      5197  TIP3      OH2            44.2444494280        9.1317575841      -14.2983763352  W2        5197            0.0000000000
     15590      5197  TIP3      H1             43.4995494280        8.6242875841      -14.6205863352  W2        5197            0.0000000000
     15591      5197  TIP3      H2             44.1101694280        9.1805575841      -13.3518963352  W2        5197            0.0000000000
     15592      5198  TIP3      OH2            51.3943394280        8.2645775841       -5.5116163352  W2        5198            0.0000000000
     15593      5198  TIP3      H1             52.0362194280        8.7212075841       -6.0553963352  W2        5198            0.0000000000
     15594      5198  TIP3      H2             50.5640294280        8.3778175841       -5.9742063352  W2        5198            0.0000000000
     15595      5199  TIP3      OH2            48.1421294280        1.9457475841      -16.0991163352  W2        5199            0.0000000000
     15596      5199  TIP3      H1             47.2035494280        2.0573075841      -16.2502363352  W2        5199            0.0000000000
     15597      5199  TIP3      H2             48.4393394280        2.8024375841      -15.7925463352  W2        5199            0.0000000000
     15598      5200  TIP3      OH2            45.7636594280        9.3160875841       -3.0614663352  W2        5200            0.0000000000
     15599      5200  TIP3      H1             45.4182694280        8.9343275841       -2.2545063352  W2        5200            0.0000000000
     15600      5200  TIP3      H2             45.5636694280       10.2494475841       -2.9901763352  W2        5200            0.0000000000
     15601      5201  TIP3      OH2            48.8604794280        3.8130175841      -14.4383763352  W2        5201            0.0000000000
     15602      5201  TIP3      H1             49.7523794280        3.6755175841      -14.1192563352  W2        5201            0.0000000000
     15603      5201  TIP3      H2             48.9168394280        4.6036275841      -14.9750263352  W2        5201            0.0000000000
     15604      5202  TIP3      OH2            39.3692794280        8.4267575841       -8.5285863352  W2        5202            0.0000000000
     15605      5202  TIP3      H1             40.1139994280        8.4243275841       -9.1299363352  W2        5202            0.0000000000
     15606      5202  TIP3      H2             39.4469394280        7.6031375841       -8.0470763352  W2        5202            0.0000000000
     15607      5203  TIP3      OH2            46.3698594280       10.5901875841      -15.2729163352  W2        5203            0.0000000000
     15608      5203  TIP3      H1             46.0746994280       11.4169775841      -14.8914363352  W2        5203            0.0000000000
     15609      5203  TIP3      H2             45.6668594280        9.9708775841      -15.0767763352  W2        5203            0.0000000000
     15610      5204  TIP3      OH2            36.3772494280        6.8874475841       -3.2137363352  W2        5204            0.0000000000
     15611      5204  TIP3      H1             36.6001094280        6.4694075841       -2.3819863352  W2        5204            0.0000000000
     15612      5204  TIP3      H2             35.7752594280        6.2749475841       -3.6364563352  W2        5204            0.0000000000
     15613      5205  TIP3      OH2            43.3937394280        6.4044375841       -1.0007663352  W2        5205            0.0000000000
     15614      5205  TIP3      H1             43.0978194280        6.2387375841       -1.8958563352  W2        5205            0.0000000000
     15615      5205  TIP3      H2             44.3252594280        6.1844675841       -1.0113763352  W2        5205            0.0000000000
     15616      5206  TIP3      OH2            48.0140194280       11.7776375841       -3.1109663352  W2        5206            0.0000000000
     15617      5206  TIP3      H1             47.1134494280       11.9608975841       -3.3785763352  W2        5206            0.0000000000
     15618      5206  TIP3      H2             48.0481294280       12.0365675841       -2.1900863352  W2        5206            0.0000000000
     15619      5207  TIP3      OH2            53.7453494280        4.0224275841      -14.7437063352  W2        5207            0.0000000000
     15620      5207  TIP3      H1             53.1909794280        3.6262275841      -15.4159563352  W2        5207            0.0000000000
     15621      5207  TIP3      H2             53.8457094280        4.9329475841      -15.0213763352  W2        5207            0.0000000000
     15622      5208  TIP3      OH2            53.7085494280        9.8225975841       -1.9065563352  W2        5208            0.0000000000
     15623      5208  TIP3      H1             52.8573994280       10.0609775841       -2.2739163352  W2        5208            0.0000000000
     15624      5208  TIP3      H2             54.2988894280        9.8059175841       -2.6598463352  W2        5208            0.0000000000
     15625      5209  TIP3      OH2            52.0405194280       12.8084675841      -14.2784963352  W2        5209            0.0000000000
     15626      5209  TIP3      H1             51.6676294280       11.9828475841      -13.9694363352  W2        5209            0.0000000000
     15627      5209  TIP3      H2             52.3178694280       12.6254075841      -15.1761563352  W2        5209            0.0000000000
     15628      5210  TIP3      OH2            49.2009094280        7.6164175841       -7.2573063352  W2        5210            0.0000000000
     15629      5210  TIP3      H1             48.2725994280        7.3846075841       -7.2843763352  W2        5210            0.0000000000
     15630      5210  TIP3      H2             49.6520194280        6.8393975841       -7.5874263352  W2        5210            0.0000000000
     15631      5211  TIP3      OH2            41.7442194280       11.9445775841      -11.1244363352  W2        5211            0.0000000000
     15632      5211  TIP3      H1             42.2714394280       12.7180175841      -11.3245563352  W2        5211            0.0000000000
     15633      5211  TIP3      H2             40.8640694280       12.1694975841      -11.4260363352  W2        5211            0.0000000000
     15634      5212  TIP3      OH2            37.4989894280        6.8069875841      -16.5371963352  W2        5212            0.0000000000
     15635      5212  TIP3      H1             38.1149794280        7.4337075841      -16.1577163352  W2        5212            0.0000000000
     15636      5212  TIP3      H2             36.6372494280        7.1229675841      -16.2655463352  W2        5212            0.0000000000
     15637      5213  TIP3      OH2            43.1714494280        9.6075675841      -11.5480063352  W2        5213            0.0000000000
     15638      5213  TIP3      H1             42.9304494280       10.5330075841      -11.5064763352  W2        5213            0.0000000000
     15639      5213  TIP3      H2             42.4308094280        9.1486975841      -11.1516163352  W2        5213            0.0000000000
     15640      5214  TIP3      OH2            43.6861094280       13.7569275841       -5.2328963352  W2        5214            0.0000000000
     15641      5214  TIP3      H1             44.0485794280       14.6114875841       -5.4664563352  W2        5214            0.0000000000
     15642      5214  TIP3      H2             44.2176294280       13.4650875841       -4.4922663352  W2        5214            0.0000000000
     15643      5215  TIP3      OH2            41.8545294280       14.6293275841      -12.0027863352  W2        5215            0.0000000000
     15644      5215  TIP3      H1             40.9045794280       14.7350675841      -11.9514563352  W2        5215            0.0000000000
     15645      5215  TIP3      H2             42.2063394280       15.4500675841      -11.6580363352  W2        5215            0.0000000000
     15646      5216  TIP3      OH2            47.2301894280        9.8559975841       -5.5323363352  W2        5216            0.0000000000
     15647      5216  TIP3      H1             46.8043194280        9.6281675841       -4.7059363352  W2        5216            0.0000000000
     15648      5216  TIP3      H2             47.8107694280        9.1171775841       -5.7148063352  W2        5216            0.0000000000
     15649      5217  TIP3      OH2            49.4330794280       10.7850475841      -16.4584363352  W2        5217            0.0000000000
     15650      5217  TIP3      H1             49.7863894280       10.4050275841      -15.6540863352  W2        5217            0.0000000000
     15651      5217  TIP3      H2             48.4844294280       10.6915275841      -16.3715063352  W2        5217            0.0000000000
     15652      5218  TIP3      OH2            49.8886094280       14.4079475841       -3.0628563352  W2        5218            0.0000000000
     15653      5218  TIP3      H1             49.2869294280       13.8522375841       -3.5582263352  W2        5218            0.0000000000
     15654      5218  TIP3      H2             50.1699794280       15.0749275841       -3.6891163352  W2        5218            0.0000000000
     15655      5219  TIP3      OH2            53.9365194280       15.2642975841      -16.2574163352  W2        5219            0.0000000000
     15656      5219  TIP3      H1             54.6803094280       15.8503475841      -16.3972563352  W2        5219            0.0000000000
     15657      5219  TIP3      H2             53.2423294280       15.8328775841      -15.9241763352  W2        5219            0.0000000000
     15658      5220  TIP3      OH2            38.0111994280        1.6407175841       -3.6555963352  W2        5220            0.0000000000
     15659      5220  TIP3      H1             37.1184294280        1.9792575841       -3.7231963352  W2        5220            0.0000000000
     15660      5220  TIP3      H2             37.9124794280        0.7853275841       -3.2375163352  W2        5220            0.0000000000
     15661      5221  TIP3      OH2            50.2990094280        9.4572475841      -14.2316463352  W2        5221            0.0000000000
     15662      5221  TIP3      H1             50.0217694280        8.7291775841      -13.6755363352  W2        5221            0.0000000000
     15663      5221  TIP3      H2             51.2263094280        9.5764475841      -14.0263863352  W2        5221            0.0000000000
     15664      5222  TIP3      OH2            37.6623994280       13.4451575841       -5.2206563352  W2        5222            0.0000000000
     15665      5222  TIP3      H1             37.8794294280       12.5133975841       -5.2516863352  W2        5222            0.0000000000
     15666      5222  TIP3      H2             37.9087494280       13.7196575841       -4.3373763352  W2        5222            0.0000000000
     15667      5223  TIP3      OH2            43.5238594280       11.8966575841      -18.0114363352  W2        5223            0.0000000000
     15668      5223  TIP3      H1             43.7628394280       11.1484675841      -18.5585463352  W2        5223            0.0000000000
     15669      5223  TIP3      H2             43.2549894280       11.5088275841      -17.1786563352  W2        5223            0.0000000000
     15670      5224  TIP3      OH2            42.4609194280       11.4670375841      -15.5551763352  W2        5224            0.0000000000
     15671      5224  TIP3      H1             42.6077194280       10.9470175841      -14.7650863352  W2        5224            0.0000000000
     15672      5224  TIP3      H2             42.4580894280       12.3737975841      -15.2485863352  W2        5224            0.0000000000
     15673      5225  TIP3      OH2            38.9140294280        8.7193675841      -15.0446363352  W2        5225            0.0000000000
     15674      5225  TIP3      H1             38.2279594280        9.0716175841      -14.4776663352  W2        5225            0.0000000000
     15675      5225  TIP3      H2             39.4368194280        9.4823275841      -15.2912063352  W2        5225            0.0000000000
     15676      5226  TIP3      OH2            46.7455394280        1.3817475841       -4.7657363352  W2        5226            0.0000000000
     15677      5226  TIP3      H1             47.4443294280        1.4556175841       -4.1157663352  W2        5226            0.0000000000
     15678      5226  TIP3      H2             46.3646794280        0.5172475841       -4.6114463352  W2        5226            0.0000000000
     15679      5227  TIP3      OH2            47.5300294280        1.0339175841      -13.6685063352  W2        5227            0.0000000000
     15680      5227  TIP3      H1             47.7498594280        1.5054575841      -14.4719663352  W2        5227            0.0000000000
     15681      5227  TIP3      H2             48.0884294280        1.4281775841      -12.9984463352  W2        5227            0.0000000000
     15682      5228  TIP3      OH2            45.1986394280       13.1643975841      -14.8057563352  W2        5228            0.0000000000
     15683      5228  TIP3      H1             44.3822494280       13.6613675841      -14.7533263352  W2        5228            0.0000000000
     15684      5228  TIP3      H2             45.7282694280       13.6397475841      -15.4458763352  W2        5228            0.0000000000
     15685      5229  TIP3      OH2            44.7300194280        2.7617975841      -12.8336663352  W2        5229            0.0000000000
     15686      5229  TIP3      H1             45.5422794280        3.2661175841      -12.7874963352  W2        5229            0.0000000000
     15687      5229  TIP3      H2             44.4853194280        2.6167675841      -11.9197063352  W2        5229            0.0000000000
     15688      5230  TIP3      OH2            45.2656594280        3.7480675841       -3.6490063352  W2        5230            0.0000000000
     15689      5230  TIP3      H1             45.3846894280        4.3216075841       -2.8919663352  W2        5230            0.0000000000
     15690      5230  TIP3      H2             45.9211194280        3.0600075841       -3.5342263352  W2        5230            0.0000000000
     15691      5231  TIP3      OH2            45.6136894280       -0.1569024159      -11.8955563352  W2        5231            0.0000000000
     15692      5231  TIP3      H1             45.2670394280        0.4601575841      -11.2511263352  W2        5231            0.0000000000
     15693      5231  TIP3      H2             46.2723794280        0.3436675841      -12.3770063352  W2        5231            0.0000000000
     15694      5232  TIP3      OH2            42.5369494280       14.2081175841      -14.8240663352  W2        5232            0.0000000000
     15695      5232  TIP3      H1             42.6978194280       15.0078675841      -15.3248063352  W2        5232            0.0000000000
     15696      5232  TIP3      H2             42.3397294280       14.5147175841      -13.9390063352  W2        5232            0.0000000000
     15697      5233  TIP3      OH2            41.2713894280        0.9060375841      -15.2083063352  W2        5233            0.0000000000
     15698      5233  TIP3      H1             41.1878694280        1.7943475841      -14.8616663352  W2        5233            0.0000000000
     15699      5233  TIP3      H2             42.1614194280        0.6407075841      -14.9766263352  W2        5233            0.0000000000
     15700      5234  TIP3      OH2            51.4702394280        1.6550975841       -2.8140363352  W2        5234            0.0000000000
     15701      5234  TIP3      H1             50.5538194280        1.9172675841       -2.9016663352  W2        5234            0.0000000000
     15702      5234  TIP3      H2             51.8057394280        1.6519975841       -3.7105063352  W2        5234            0.0000000000
     15703      5235  TIP3      OH2            50.0723394280        5.4051975841       -8.7183063352  W2        5235            0.0000000000
     15704      5235  TIP3      H1             49.2747794280        4.9902175841       -9.0468063352  W2        5235            0.0000000000
     15705      5235  TIP3      H2             50.5174494280        4.7145675841       -8.2272563352  W2        5235            0.0000000000
     15706      5236  TIP3      OH2            39.5299194280       11.3332575841      -16.1478563352  W2        5236            0.0000000000
     15707      5236  TIP3      H1             40.1220694280       12.0327375841      -15.8716163352  W2        5236            0.0000000000
     15708      5236  TIP3      H2             39.9892194280       10.9002075841      -16.8673963352  W2        5236            0.0000000000
     15709      5237  TIP3      OH2            37.8458394280        3.9975575841      -17.0319163352  W2        5237            0.0000000000
     15710      5237  TIP3      H1             37.8010994280        4.9368675841      -16.8532163352  W2        5237            0.0000000000
     15711      5237  TIP3      H2             36.9581594280        3.7620475841      -17.3017063352  W2        5237            0.0000000000
     15712      5238  TIP3      OH2            51.1587994280       14.6614475841       -7.0959563352  W2        5238            0.0000000000
     15713      5238  TIP3      H1             51.0032294280       15.3398875841       -7.7530263352  W2        5238            0.0000000000
     15714      5238  TIP3      H2             52.0914394280       14.7333775841       -6.8928963352  W2        5238            0.0000000000
     15715      5239  TIP3      OH2            38.6540394280       -1.2207824159       -8.3588163352  W2        5239            0.0000000000
     15716      5239  TIP3      H1             38.4250194280       -1.1615324159       -9.2863163352  W2        5239            0.0000000000
     15717      5239  TIP3      H2             38.2113794280       -2.0122324159       -8.0524063352  W2        5239            0.0000000000
     15718      5240  TIP3      OH2            37.5843694280       12.7199275841      -12.1982363352  W2        5240            0.0000000000
     15719      5240  TIP3      H1             36.7522294280       13.1921975841      -12.1710963352  W2        5240            0.0000000000
     15720      5240  TIP3      H2             38.1301994280       13.2296875841      -12.7969263352  W2        5240            0.0000000000
     15721      5241  TIP3      OH2            36.8727394280       15.3322975841       -0.8684363352  W2        5241            0.0000000000
     15722      5241  TIP3      H1             37.4129594280       15.1156975841       -0.1085163352  W2        5241            0.0000000000
     15723      5241  TIP3      H2             36.3915394280       14.5268975841       -1.0581863352  W2        5241            0.0000000000
     15724      5242  TIP3      OH2            41.4700794280       14.2517375841        0.7519836648  W2        5242            0.0000000000
     15725      5242  TIP3      H1             42.2377994280       13.7928175841        1.0929036648  W2        5242            0.0000000000
     15726      5242  TIP3      H2             41.4486994280       14.0257175841       -0.1778963352  W2        5242            0.0000000000
     15727      5243  TIP3      OH2            45.5620394280       13.7597975841      -17.8728363352  W2        5243            0.0000000000
     15728      5243  TIP3      H1             44.9181394280       13.1286575841      -17.5514663352  W2        5243            0.0000000000
     15729      5243  TIP3      H2             46.3238694280       13.2285975841      -18.1044863352  W2        5243            0.0000000000
     15730      5244  TIP3      OH2            48.0469494280       12.6318475841       -0.5188663352  W2        5244            0.0000000000
     15731      5244  TIP3      H1             47.6958994280       11.7751475841       -0.2758263352  W2        5244            0.0000000000
     15732      5244  TIP3      H2             48.7732694280       12.7745175841        0.0880336648  W2        5244            0.0000000000
     15733      5245  TIP3      OH2            50.1663294280       13.5767875841      -17.6390363352  W2        5245            0.0000000000
     15734      5245  TIP3      H1             50.4493694280       12.7823075841      -17.1863463352  W2        5245            0.0000000000
     15735      5245  TIP3      H2             50.9061194280       13.8098875841      -18.1999263352  W2        5245            0.0000000000
     15736      5246  TIP3      OH2            36.7796894280        9.1427075841        0.0859936648  W2        5246            0.0000000000
     15737      5246  TIP3      H1             36.9237394280        8.2407775841       -0.2003363352  W2        5246            0.0000000000
     15738      5246  TIP3      H2             36.0074294280        9.4289175841       -0.4017763352  W2        5246            0.0000000000
     15739      5247  TIP3      OH2            41.1210594280        9.4862775841      -17.7815463352  W2        5247            0.0000000000
     15740      5247  TIP3      H1             41.1854694280        8.6922375841      -17.2509063352  W2        5247            0.0000000000
     15741      5247  TIP3      H2             41.7739794280        9.3675575841      -18.4713463352  W2        5247            0.0000000000
     15742      5248  TIP3      OH2            43.4352994280        9.1125175841       -0.4813663352  W2        5248            0.0000000000
     15743      5248  TIP3      H1             43.1066794280        9.3833275841       -1.3386263352  W2        5248            0.0000000000
     15744      5248  TIP3      H2             43.5871194280        8.1714975841       -0.5688663352  W2        5248            0.0000000000
     15745      5249  TIP3      OH2            46.4733994280       10.5334475841      -18.0457463352  W2        5249            0.0000000000
     15746      5249  TIP3      H1             46.2048094280       10.7136575841      -17.1448563352  W2        5249            0.0000000000
     15747      5249  TIP3      H2             46.2669594280        9.6080675841      -18.1771663352  W2        5249            0.0000000000
     15748      5250  TIP3      OH2            49.1698194280        9.0282475841       -3.0981363352  W2        5250            0.0000000000
     15749      5250  TIP3      H1             49.9152994280        9.6166175841       -3.2177363352  W2        5250            0.0000000000
     15750      5250  TIP3      H2             48.4124994280        9.6102175841       -3.0348263352  W2        5250            0.0000000000
     15751      5251  TIP3      OH2            37.6123394280        6.3430375841       -0.4940763352  W2        5251            0.0000000000
     15752      5251  TIP3      H1             38.0204594280        5.4856975841       -0.6150163352  W2        5251            0.0000000000
     15753      5251  TIP3      H2             37.3520994280        6.3571675841        0.4269536648  W2        5251            0.0000000000
     15754      5252  TIP3      OH2            42.2704394280        7.4588975841      -15.4757463352  W2        5252            0.0000000000
     15755      5252  TIP3      H1             41.8106394280        6.9747275841      -14.7898963352  W2        5252            0.0000000000
     15756      5252  TIP3      H2             42.5253094280        6.7904375841      -16.1116963352  W2        5252            0.0000000000
     15757      5253  TIP3      OH2            41.5593694280        5.3516075841       -3.1197863352  W2        5253            0.0000000000
     15758      5253  TIP3      H1             40.9409794280        6.0262675841       -2.8393163352  W2        5253            0.0000000000
     15759      5253  TIP3      H2             41.9034894280        5.6729975841       -3.9531663352  W2        5253            0.0000000000
     15760      5254  TIP3      OH2            43.3414794280        5.7020775841      -17.2134263352  W2        5254            0.0000000000
     15761      5254  TIP3      H1             43.1609794280        5.5471975841      -18.1405963352  W2        5254            0.0000000000
     15762      5254  TIP3      H2             44.2915294280        5.8099475841      -17.1686363352  W2        5254            0.0000000000
     15763      5255  TIP3      OH2            46.5791894280        7.8231375841        0.1576936648  W2        5255            0.0000000000
     15764      5255  TIP3      H1             47.5323094280        7.9070475841        0.1302936648  W2        5255            0.0000000000
     15765      5255  TIP3      H2             46.4186494280        7.1113175841        0.7771836648  W2        5255            0.0000000000
     15766      5256  TIP3      OH2            52.7313094280        8.0564975841      -17.7676163352  W2        5256            0.0000000000
     15767      5256  TIP3      H1             52.4577894280        7.6320475841      -18.5807863352  W2        5256            0.0000000000
     15768      5256  TIP3      H2             52.7707194280        8.9879475841      -17.9845763352  W2        5256            0.0000000000
     15769      5257  TIP3      OH2            41.8987394280        2.7066875841       -2.0374763352  W2        5257            0.0000000000
     15770      5257  TIP3      H1             42.0488294280        1.9778175841       -2.6395063352  W2        5257            0.0000000000
     15771      5257  TIP3      H2             41.9009794280        3.4838575841       -2.5962563352  W2        5257            0.0000000000
     15772      5258  TIP3      OH2            42.3113094280        1.0762675841       -4.5447363352  W2        5258            0.0000000000
     15773      5258  TIP3      H1             42.8470594280        1.5279375841       -5.1968063352  W2        5258            0.0000000000
     15774      5258  TIP3      H2             41.4592694280        0.9682475841       -4.9673263352  W2        5258            0.0000000000
     15775      5259  TIP3      OH2            43.8931494280        6.5158875841       -4.3052163352  W2        5259            0.0000000000
     15776      5259  TIP3      H1             44.6436294280        6.3596375841       -4.8784363352  W2        5259            0.0000000000
     15777      5259  TIP3      H2             43.5539794280        7.3675475841       -4.5806663352  W2        5259            0.0000000000
     15778      5260  TIP3      OH2            48.3087694280        4.3310675841        0.7233136648  W2        5260            0.0000000000
     15779      5260  TIP3      H1             48.5008994280        3.4000075841        0.6117636648  W2        5260            0.0000000000
     15780      5260  TIP3      H2             49.1663994280        4.7560175841        0.7128536648  W2        5260            0.0000000000
     15781      5261  TIP3      OH2            49.6254894280        7.1195875841       -1.1994163352  W2        5261            0.0000000000
     15782      5261  TIP3      H1             49.3439894280        7.8290475841       -1.7770363352  W2        5261            0.0000000000
     15783      5261  TIP3      H2             50.5679194280        7.0468875841       -1.3502963352  W2        5261            0.0000000000
     15784      5262  TIP3      OH2            40.3773694280        3.9050375841       -0.1259163352  W2        5262            0.0000000000
     15785      5262  TIP3      H1             39.6102694280        3.3725175841       -0.3361563352  W2        5262            0.0000000000
     15786      5262  TIP3      H2             41.0562694280        3.5950775841       -0.7252863352  W2        5262            0.0000000000
     15787      5263  TIP3      OH2            43.1168594280       -1.4671624159       -4.1133763352  W2        5263            0.0000000000
     15788      5263  TIP3      H1             43.0188194280       -0.5208424159       -4.2187563352  W2        5263            0.0000000000
     15789      5263  TIP3      H2             42.3744794280       -1.8397824159       -4.5890263352  W2        5263            0.0000000000
     15790      5264  TIP3      OH2            44.3809094280        2.8543775841       -0.5495363352  W2        5264            0.0000000000
     15791      5264  TIP3      H1             44.1454494280        2.6350475841        0.3519536648  W2        5264            0.0000000000
     15792      5264  TIP3      H2             43.5975994280        2.6474975841       -1.0592863352  W2        5264            0.0000000000
     15793      5265  TIP3      OH2            47.0965694280        1.9817275841       -1.4741863352  W2        5265            0.0000000000
     15794      5265  TIP3      H1             46.1491094280        2.0136975841       -1.3418563352  W2        5265            0.0000000000
     15795      5265  TIP3      H2             47.4092394280        1.3564375841       -0.8203663352  W2        5265            0.0000000000
     15796      5266  TIP3      OH2            48.7307194280        0.6158375841        0.5310036648  W2        5266            0.0000000000
     15797      5266  TIP3      H1             48.6338994280       -0.3364324159        0.5251936648  W2        5266            0.0000000000
     15798      5266  TIP3      H2             48.4090294280        0.8845175841        1.3915536648  W2        5266            0.0000000000
     15799      5267  TIP3      OH2            38.5576494280        1.8254175841       -0.4214463352  W2        5267            0.0000000000
     15800      5267  TIP3      H1             38.7693894280        1.1190275841       -1.0316963352  W2        5267            0.0000000000
     15801      5267  TIP3      H2             38.4463994280        1.3880175841        0.4226736648  W2        5267            0.0000000000
     15802      5268  TIP3      OH2            43.3386694280       -2.1734224159       -1.4420963352  W2        5268            0.0000000000
     15803      5268  TIP3      H1             44.0505094280       -2.8132024159       -1.4561863352  W2        5268            0.0000000000
     15804      5268  TIP3      H2             43.2377094280       -1.9065924159       -2.3557863352  W2        5268            0.0000000000
     15805      5269  TIP3      OH2            43.6924194280       -0.4905824159        0.6115336648  W2        5269            0.0000000000
     15806      5269  TIP3      H1             43.5606394280       -0.9662024159       -0.2086163352  W2        5269            0.0000000000
     15807      5269  TIP3      H2             43.0931594280        0.2537775841        0.5562436648  W2        5269            0.0000000000
     15808      5270  TIP3      OH2            43.2386494280       16.3924475841      -16.2120663352  W2        5270            0.0000000000
     15809      5270  TIP3      H1             44.1717194280       16.5503175841      -16.0682263352  W2        5270            0.0000000000
     15810      5270  TIP3      H2             42.9745294280       17.0677475841      -16.8369163352  W2        5270            0.0000000000
     15811      5271  TIP3      OH2            36.8071394280       11.0288275841      -16.7292563352  W2        5271            0.0000000000
     15812      5271  TIP3      H1             37.7210594280       11.1077175841      -16.4558663352  W2        5271            0.0000000000
     15813      5271  TIP3      H2             36.8144494280       10.3417875841      -17.3956963352  W2        5271            0.0000000000
     15814      5272  TIP3      OH2            35.4561994280       16.4216775841      -11.6518663352  W2        5272            0.0000000000
     15815      5272  TIP3      H1             34.8089094280       15.9598475841      -12.1847463352  W2        5272            0.0000000000
     15816      5272  TIP3      H2             35.8106594280       15.7500075841      -11.0692463352  W2        5272            0.0000000000
     15817      5273  TIP3      OH2            36.3261194280       14.5023775841       -9.8472463352  W2        5273            0.0000000000
     15818      5273  TIP3      H1             35.9917994280       13.6221075841       -9.6752263352  W2        5273            0.0000000000
     15819      5273  TIP3      H2             36.5483594280       14.8478775841       -8.9826863352  W2        5273            0.0000000000
     15820      5274  TIP3      OH2            53.8745994280       15.3120175841       -6.8667663352  W2        5274            0.0000000000
     15821      5274  TIP3      H1             53.8532694280       15.4968575841       -5.9278263352  W2        5274            0.0000000000
     15822      5274  TIP3      H2             54.5652194280       15.8804175841       -7.2076263352  W2        5274            0.0000000000
     15823      5275  TIP3      OH2            53.4378894280       14.8791275841       -3.9448563352  W2        5275            0.0000000000
     15824      5275  TIP3      H1             52.9507594280       14.1435375841       -4.3161163352  W2        5275            0.0000000000
     15825      5275  TIP3      H2             53.9871594280       14.4855175841       -3.2669163352  W2        5275            0.0000000000
     15826      5276  TIP3      OH2            51.8886194280       10.6689375841        0.6931736648  W2        5276            0.0000000000
     15827      5276  TIP3      H1             51.0227294280       10.5639075841        1.0874036648  W2        5276            0.0000000000
     15828      5276  TIP3      H2             52.2652094280       11.4272675841        1.1396436648  W2        5276            0.0000000000
     15829      5277  TIP3      OH2            53.1895894280        8.9253075841      -13.7925763352  W2        5277            0.0000000000
     15830      5277  TIP3      H1             54.0397294280        9.3463975841      -13.6654163352  W2        5277            0.0000000000
     15831      5277  TIP3      H2             53.1950994280        8.1853175841      -13.1854363352  W2        5277            0.0000000000
     15832      5278  TIP3      OH2            53.5841494280        6.9790475841      -11.9690063352  W2        5278            0.0000000000
     15833      5278  TIP3      H1             52.8576094280        6.4993075841      -11.5712463352  W2        5278            0.0000000000
     15834      5278  TIP3      H2             54.1654794280        7.1845175841      -11.2368463352  W2        5278            0.0000000000
     15835      5279  TIP3      OH2            53.3432694280        9.7637975841       -7.0212463352  W2        5279            0.0000000000
     15836      5279  TIP3      H1             54.1766894280        9.3857975841       -7.3018863352  W2        5279            0.0000000000
     15837      5279  TIP3      H2             53.4552994280       10.7069175841       -7.1403363352  W2        5279            0.0000000000
     15838      5280  TIP3      OH2            51.8294994280       12.6415475841       -4.7144063352  W2        5280            0.0000000000
     15839      5280  TIP3      H1             51.1820294280       12.9666975841       -4.0888863352  W2        5280            0.0000000000
     15840      5280  TIP3      H2             51.3118994280       12.2013175841       -5.3885763352  W2        5280            0.0000000000
     15841      5281  TIP3      OH2            53.8524594280        6.8798975841      -15.5778763352  W2        5281            0.0000000000
     15842      5281  TIP3      H1             53.3305694280        7.2363075841      -16.2967863352  W2        5281            0.0000000000
     15843      5281  TIP3      H2             53.8193794280        7.5546775841      -14.8997863352  W2        5281            0.0000000000
     15844      5282  TIP3      OH2            52.2013594280        4.1194575841      -17.0271663352  W2        5282            0.0000000000
     15845      5282  TIP3      H1             52.2977994280        4.7861575841      -17.7071963352  W2        5282            0.0000000000
     15846      5282  TIP3      H2             52.0613194280        3.3040875841      -17.5086163352  W2        5282            0.0000000000
     15847      5283  TIP3      OH2            51.3708294280        5.4996975841      -11.4061363352  W2        5283            0.0000000000
     15848      5283  TIP3      H1             51.2207094280        4.5545575841      -11.4263563352  W2        5283            0.0000000000
     15849      5283  TIP3      H2             51.0172794280        5.7808375841      -10.5622263352  W2        5283            0.0000000000
     15850      5284  TIP3      OH2            36.4060694280        7.5779175841       -7.3957563352  W2        5284            0.0000000000
     15851      5284  TIP3      H1             36.5903594280        7.4960875841       -8.3314663352  W2        5284            0.0000000000
     15852      5284  TIP3      H2             37.2553594280        7.4536175841       -6.9721163352  W2        5284            0.0000000000
     15853      5285  TIP3      OH2            52.2271194280        7.4700275841       -1.7673063352  W2        5285            0.0000000000
     15854      5285  TIP3      H1             52.8098494280        6.7352575841       -1.5755863352  W2        5285            0.0000000000
     15855      5285  TIP3      H2             52.7910494280        8.2420575841       -1.7207263352  W2        5285            0.0000000000
     15856      5286  TIP3      OH2            53.7238294280        5.3726075841       -1.0827663352  W2        5286            0.0000000000
     15857      5286  TIP3      H1             52.8604994280        4.9938175841       -1.2482963352  W2        5286            0.0000000000
     15858      5286  TIP3      H2             54.3281994280        4.6340875841       -1.1571863352  W2        5286            0.0000000000
     15859      5287  TIP3      OH2            51.4487394280        1.5274375841      -17.9096163352  W2        5287            0.0000000000
     15860      5287  TIP3      H1             52.0593194280        1.1561175841      -17.2727963352  W2        5287            0.0000000000
     15861      5287  TIP3      H2             50.6118894280        1.1061275841      -17.7136163352  W2        5287            0.0000000000
     15862      5288  TIP3      OH2            51.0813094280        3.0822775841      -12.9436263352  W2        5288            0.0000000000
     15863      5288  TIP3      H1             51.3610194280        2.1753175841      -12.8194563352  W2        5288            0.0000000000
     15864      5288  TIP3      H2             51.8404794280        3.5164275841      -13.3327063352  W2        5288            0.0000000000
     15865      5289  TIP3      OH2            51.6931394280        3.6640175841       -7.5077363352  W2        5289            0.0000000000
     15866      5289  TIP3      H1             52.6259394280        3.8760075841       -7.5421363352  W2        5289            0.0000000000
     15867      5289  TIP3      H2             51.4578894280        3.7652275841       -6.5854363352  W2        5289            0.0000000000
     15868      5290  TIP3      OH2            51.7223294280        4.4005475841       -4.7317963352  W2        5290            0.0000000000
     15869      5290  TIP3      H1             50.8794594280        4.6685875841       -4.3658163352  W2        5290            0.0000000000
     15870      5290  TIP3      H2             52.1647594280        5.2227375841       -4.9426863352  W2        5290            0.0000000000
     15871      5291  TIP3      OH2            36.0035494280        2.8484175841       -1.2548763352  W2        5291            0.0000000000
     15872      5291  TIP3      H1             36.9230394280        2.7262475841       -1.0185663352  W2        5291            0.0000000000
     15873      5291  TIP3      H2             35.5539994280        2.0983875841       -0.8655263352  W2        5291            0.0000000000
     15874      5292  TIP3      OH2            54.0054894280       -1.6194324159        0.6217036648  W2        5292            0.0000000000
     15875      5292  TIP3      H1             54.3551894280       -2.2730824159        0.0161736648  W2        5292            0.0000000000
     15876      5292  TIP3      H2             54.1524394280       -0.7820224159        0.1819636648  W2        5292            0.0000000000
     15877      5293  TIP3      OH2            51.6947894280        0.3452075841      -12.8954263352  W2        5293            0.0000000000
     15878      5293  TIP3      H1             51.8772894280       -0.1036424159      -12.0699263352  W2        5293            0.0000000000
     15879      5293  TIP3      H2             51.0950794280       -0.2393524159      -13.3589663352  W2        5293            0.0000000000
     15880      5294  TIP3      OH2            37.2247994280        1.1605775841       -8.3635863352  W2        5294            0.0000000000
     15881      5294  TIP3      H1             37.6699594280        0.3688275841       -8.0616163352  W2        5294            0.0000000000
     15882      5294  TIP3      H2             37.6910994280        1.8770975841       -7.9330263352  W2        5294            0.0000000000
     15883      5295  TIP3      OH2            35.5288294280        4.1598775841       -7.2945663352  W2        5295            0.0000000000
     15884      5295  TIP3      H1             36.0208094280        3.9389275841       -8.0853663352  W2        5295            0.0000000000
     15885      5295  TIP3      H2             35.8909194280        5.0002175841       -7.0136163352  W2        5295            0.0000000000
     15886      5296  TIP3      OH2            53.5252094280        0.4900275841       -1.0291663352  W2        5296            0.0000000000
     15887      5296  TIP3      H1             52.6077794280        0.7607375841       -1.0648163352  W2        5296            0.0000000000
     15888      5296  TIP3      H2             53.6481494280       -0.0451324159       -1.8131963352  W2        5296            0.0000000000
     15889      5297  TIP3      OH2            53.5614094280        0.4130175841      -16.3673963352  W2        5297            0.0000000000
     15890      5297  TIP3      H1             53.9736694280       -0.3084124159      -16.8425963352  W2        5297            0.0000000000
     15891      5297  TIP3      H2             54.2430594280        1.0824775841      -16.3089663352  W2        5297            0.0000000000
     15892      5298  TIP3      OH2            35.8424794280        0.4177875841      -13.2403263352  W2        5298            0.0000000000
     15893      5298  TIP3      H1             34.9173194280        0.6264475841      -13.3697763352  W2        5298            0.0000000000
     15894      5298  TIP3      H2             36.2964694280        0.9018675841      -13.9300963352  W2        5298            0.0000000000
     15895      5299  TIP3      OH2            50.6131994280       15.4019575841      -11.2945863352  W2        5299            0.0000000000
     15896      5299  TIP3      H1             51.2654894280       15.0541675841      -11.9026763352  W2        5299            0.0000000000
     15897      5299  TIP3      H2             51.1235794280       15.8902775841      -10.6486163352  W2        5299            0.0000000000
     15898      5300  TIP3      OH2            35.8060194280       -0.8443124159       -4.8960763352  W2        5300            0.0000000000
     15899      5300  TIP3      H1             35.1410694280       -1.0902824159       -4.2529863352  W2        5300            0.0000000000
     15900      5300  TIP3      H2             35.3631494280       -0.2222724159       -5.4732763352  W2        5300            0.0000000000
     15901      5301  TIP3      OH2            37.9979494280       12.3310975841       -0.7514963352  W2        5301            0.0000000000
     15902      5301  TIP3      H1             37.1771994280       12.5057475841       -1.2120263352  W2        5301            0.0000000000
     15903      5301  TIP3      H2             37.7457294280       12.2575675841        0.1689436648  W2        5301            0.0000000000
     15904      5302  TIP3      OH2            40.9522394280       13.3052175841       -4.4930963352  W2        5302            0.0000000000
     15905      5302  TIP3      H1             40.5273494280       14.1150675841       -4.7756363352  W2        5302            0.0000000000
     15906      5302  TIP3      H2             41.8565194280       13.3906275841       -4.7951163352  W2        5302            0.0000000000
     15907      5303  TIP3      OH2            45.2633794280       14.7042175841       -1.5337263352  W2        5303            0.0000000000
     15908      5303  TIP3      H1             45.4481294280       14.3708275841       -0.6556963352  W2        5303            0.0000000000
     15909      5303  TIP3      H2             46.1098294280       15.0140775841       -1.8558063352  W2        5303            0.0000000000
     15910      5304  TIP3      OH2            47.6084194280       15.9901075841       -2.2895863352  W2        5304            0.0000000000
     15911      5304  TIP3      H1             48.2853094280       15.3573375841       -2.5296663352  W2        5304            0.0000000000
     15912      5304  TIP3      H2             47.9302994280       16.3911575841       -1.4822563352  W2        5304            0.0000000000
     15913      5305  TIP3      OH2            52.5257994280       -1.4203424159       -3.2100863352  W2        5305            0.0000000000
     15914      5305  TIP3      H1             51.7131494280       -1.0953124159       -3.5976163352  W2        5305            0.0000000000
     15915      5305  TIP3      H2             52.7586494280       -2.1804924159       -3.7431763352  W2        5305            0.0000000000
     15916      5306  TIP3      OH2            38.3539094280       16.5616075841       -4.4455663352  W2        5306            0.0000000000
     15917      5306  TIP3      H1             37.6335494280       17.0017075841       -4.8967963352  W2        5306            0.0000000000
     15918      5306  TIP3      H2             37.9883094280       16.3110775841       -3.5971663352  W2        5306            0.0000000000
     15919      5307  TIP3      OH2            40.8211694280       16.1619975841       -5.4158463352  W2        5307            0.0000000000
     15920      5307  TIP3      H1             39.9563894280       16.2338475841       -5.0118363352  W2        5307            0.0000000000
     15921      5307  TIP3      H2             40.7660694280       16.7087275841       -6.1995963352  W2        5307            0.0000000000
     15922      5308  TIP3      OH2            45.5317294280       16.0498875841       -6.2402463352  W2        5308            0.0000000000
     15923      5308  TIP3      H1             45.0751294280       16.5788575841       -6.8944063352  W2        5308            0.0000000000
     15924      5308  TIP3      H2             45.6945294280       16.6530275841       -5.5150163352  W2        5308            0.0000000000
     15925      5309  TIP3      OH2            47.8593594280       14.9278475841       -5.2952163352  W2        5309            0.0000000000
     15926      5309  TIP3      H1             46.9547294280       15.0928675841       -5.5610063352  W2        5309            0.0000000000
     15927      5309  TIP3      H2             48.2882194280       15.7810675841       -5.3608763352  W2        5309            0.0000000000
     15928      5310  TIP3      OH2            50.4635494280       16.4977575841       -5.0004363352  W2        5310            0.0000000000
     15929      5310  TIP3      H1             50.2817494280       17.4136475841       -5.2109463352  W2        5310            0.0000000000
     15930      5310  TIP3      H2             50.6403294280       16.0874675841       -5.8469763352  W2        5310            0.0000000000
     15931      5311  TIP3      OH2            37.7687194280       15.1848575841       -7.5353863352  W2        5311            0.0000000000
     15932      5311  TIP3      H1             37.7503194280       14.7593675841       -6.6781563352  W2        5311            0.0000000000
     15933      5311  TIP3      H2             38.5735094280       14.8663575841       -7.9441663352  W2        5311            0.0000000000
     15934      5312  TIP3      OH2            39.9100294280       13.8947275841       -8.8803963352  W2        5312            0.0000000000
     15935      5312  TIP3      H1             39.6910994280       12.9784675841       -8.7107963352  W2        5312            0.0000000000
     15936      5312  TIP3      H2             40.7342494280       14.0347675841       -8.4142563352  W2        5312            0.0000000000
     15937      5313  TIP3      OH2            42.4472794280       14.3646575841       -8.0315963352  W2        5313            0.0000000000
     15938      5313  TIP3      H1             42.6598494280       13.4765575841       -8.3185063352  W2        5313            0.0000000000
     15939      5313  TIP3      H2             42.5117894280       14.3304275841       -7.0771963352  W2        5313            0.0000000000
     15940      5314  TIP3      OH2            45.9556494280        0.0287175841       -8.8872663352  W2        5314            0.0000000000
     15941      5314  TIP3      H1             45.2813294280       -0.6007224159       -8.6316863352  W2        5314            0.0000000000
     15942      5314  TIP3      H2             46.5195694280       -0.4553924159       -9.4904763352  W2        5314            0.0000000000
     15943      5315  TIP3      OH2            51.0983694280       -1.8638824159       -8.7745563352  W2        5315            0.0000000000
     15944      5315  TIP3      H1             51.7021294280       -1.3163424159       -9.2764563352  W2        5315            0.0000000000
     15945      5315  TIP3      H2             50.2285694280       -1.5448424159       -9.0151463352  W2        5315            0.0000000000
     15946      5316  TIP3      OH2            52.8254094280       -0.7250124159      -10.4414663352  W2        5316            0.0000000000
     15947      5316  TIP3      H1             53.4371594280       -1.2394424159      -10.9681063352  W2        5316            0.0000000000
     15948      5316  TIP3      H2             53.2077494280        0.1521975841      -10.4180263352  W2        5316            0.0000000000
     15949      5317  TIP3      OH2            38.2823994280       -1.3372524159      -11.0652763352  W2        5317            0.0000000000
     15950      5317  TIP3      H1             37.5053794280       -1.5717624159      -11.5726863352  W2        5317            0.0000000000
     15951      5317  TIP3      H2             38.8127594280       -2.1340424159      -11.0564763352  W2        5317            0.0000000000
     15952      5318  TIP3      OH2            37.1187394280       -1.5394424159      -15.2616663352  W2        5318            0.0000000000
     15953      5318  TIP3      H1             37.5578094280       -0.9283924159      -15.8533163352  W2        5318            0.0000000000
     15954      5318  TIP3      H2             36.4849794280       -1.0010324159      -14.7876663352  W2        5318            0.0000000000
     15955      5319  TIP3      OH2            42.8616594280       -1.4105424159      -11.2519663352  W2        5319            0.0000000000
     15956      5319  TIP3      H1             43.7359994280       -1.0221124159      -11.2815363352  W2        5319            0.0000000000
     15957      5319  TIP3      H2             42.7257394280       -1.6257624159      -10.3292463352  W2        5319            0.0000000000
     15958      5320  TIP3      OH2            48.4184994280       -1.3805624159       -9.6027963352  W2        5320            0.0000000000
     15959      5320  TIP3      H1             48.4946594280       -1.2854024159      -10.5521963352  W2        5320            0.0000000000
     15960      5320  TIP3      H2             48.1434194280       -2.2882724159       -9.4738863352  W2        5320            0.0000000000
     15961      5321  TIP3      OH2            49.7717594280       -1.3547824159      -13.9102963352  W2        5321            0.0000000000
     15962      5321  TIP3      H1             49.0688694280       -0.7398624159      -14.1201563352  W2        5321            0.0000000000
     15963      5321  TIP3      H2             49.3268994280       -2.1921124159      -13.7792063352  W2        5321            0.0000000000
     15964      5322  TIP3      OH2            37.0196894280       14.4087775841      -14.3641563352  W2        5322            0.0000000000
     15965      5322  TIP3      H1             36.3346794280       14.3706675841      -15.0316463352  W2        5322            0.0000000000
     15966      5322  TIP3      H2             37.0234094280       15.3215375841      -14.0759463352  W2        5322            0.0000000000
     15967      5323  TIP3      OH2            38.9796494280        0.3767075841      -16.8192563352  W2        5323            0.0000000000
     15968      5323  TIP3      H1             39.4709894280       -0.2530524159      -17.3467063352  W2        5323            0.0000000000
     15969      5323  TIP3      H2             39.6032794280        0.6726475841      -16.1561363352  W2        5323            0.0000000000
     15970      5324  TIP3      OH2            44.0056594280        0.6698575841      -14.3622063352  W2        5324            0.0000000000
     15971      5324  TIP3      H1             44.1837894280        0.0231775841      -13.6793463352  W2        5324            0.0000000000
     15972      5324  TIP3      H2             43.9522794280        1.5036275841      -13.8950963352  W2        5324            0.0000000000
     15973      5325  TIP3      OH2            45.8840394280       15.6182675841      -15.9665363352  W2        5325            0.0000000000
     15974      5325  TIP3      H1             46.7500594280       15.9850075841      -16.1447163352  W2        5325            0.0000000000
     15975      5325  TIP3      H2             45.6373194280       15.1790675841      -16.7804563352  W2        5325            0.0000000000
     15976      5326  TIP3      OH2            52.5929994280       15.1812975841      -13.2874263352  W2        5326            0.0000000000
     15977      5326  TIP3      H1             52.3987094280       14.4335075841      -13.8524663352  W2        5326            0.0000000000
     15978      5326  TIP3      H2             52.5540094280       15.9393075841      -13.8706363352  W2        5326            0.0000000000
     15979      5327  TIP3      OH2            38.2401994280       -0.8230624159       -1.5476563352  W2        5327            0.0000000000
     15980      5327  TIP3      H1             37.8740194280       -1.5888024159       -1.1051863352  W2        5327            0.0000000000
     15981      5327  TIP3      H2             39.1530494280       -0.7940424159       -1.2611463352  W2        5327            0.0000000000
     15982      5328  TIP3      OH2            40.2132794280       -1.4726224159       -0.0119463352  W2        5328            0.0000000000
     15983      5328  TIP3      H1             41.1116394280       -1.7466024159       -0.1966063352  W2        5328            0.0000000000
     15984      5328  TIP3      H2             39.8265894280       -2.2150224159        0.4523136648  W2        5328            0.0000000000
     15985      5329  TIP3      OH2            38.8378094280       15.3288575841      -17.3389463352  W2        5329            0.0000000000
     15986      5329  TIP3      H1             38.5702694280       15.6151475841      -16.4656363352  W2        5329            0.0000000000
     15987      5329  TIP3      H2             39.6090694280       14.7827775841      -17.1866963352  W2        5329            0.0000000000
     15988      5330  TIP3      OH2            48.6345094280       -2.1400924159        0.1703336648  W2        5330            0.0000000000
     15989      5330  TIP3      H1             48.7112294280       -2.5660224159        1.0241036648  W2        5330            0.0000000000
     15990      5330  TIP3      H2             49.5281694280       -2.1266224159       -0.1723163352  W2        5330            0.0000000000
     15991      5331  TIP3      OH2            51.8106194280       13.9325375841       -1.1372463352  W2        5331            0.0000000000
     15992      5331  TIP3      H1             51.0288094280       13.7463375841       -1.6571863352  W2        5331            0.0000000000
     15993      5331  TIP3      H2             51.7386094280       14.8619675841       -0.9199963352  W2        5331            0.0000000000
     15994      5332  TIP3      OH2            57.5182894280        6.6882575841       -6.0947163352  W2        5332            0.0000000000
     15995      5332  TIP3      H1             57.5594994280        6.0625875841       -5.3714763352  W2        5332            0.0000000000
     15996      5332  TIP3      H2             58.2210594280        7.3121175841       -5.9126763352  W2        5332            0.0000000000
     15997      5333  TIP3      OH2            58.4415994280       11.1381475841       -7.5598063352  W2        5333            0.0000000000
     15998      5333  TIP3      H1             58.0721194280       10.3361975841       -7.9293763352  W2        5333            0.0000000000
     15999      5333  TIP3      H2             59.3827094280       10.9696375841       -7.5134663352  W2        5333            0.0000000000
     16000      5334  TIP3      OH2            55.0516494280        4.7984075841      -12.1669263352  W2        5334            0.0000000000
     16001      5334  TIP3      H1             54.6039894280        5.6442775841      -12.1852763352  W2        5334            0.0000000000
     16002      5334  TIP3      H2             54.4907694280        4.2188275841      -12.6824163352  W2        5334            0.0000000000
     16003      5335  TIP3      OH2            55.7622594280        6.9603675841      -10.0411263352  W2        5335            0.0000000000
     16004      5335  TIP3      H1             55.9756094280        6.1905275841       -9.5138263352  W2        5335            0.0000000000
     16005      5335  TIP3      H2             56.5000194280        7.0500375841      -10.6443663352  W2        5335            0.0000000000
     16006      5336  TIP3      OH2            56.4549094280        4.3986475841       -8.9195063352  W2        5336            0.0000000000
     16007      5336  TIP3      H1             57.1085694280        3.8488175841       -8.4874963352  W2        5336            0.0000000000
     16008      5336  TIP3      H2             56.4788394280        4.1245475841       -9.8363063352  W2        5336            0.0000000000
     16009      5337  TIP3      OH2            58.2386794280        2.8120875841       -7.6553463352  W2        5337            0.0000000000
     16010      5337  TIP3      H1             58.8523094280        3.4448475841       -7.2821063352  W2        5337            0.0000000000
     16011      5337  TIP3      H2             58.7507494280        2.3395875841       -8.3116563352  W2        5337            0.0000000000
     16012      5338  TIP3      OH2            55.7426094280       10.2305675841      -13.7511163352  W2        5338            0.0000000000
     16013      5338  TIP3      H1             55.4706994280       10.4596675841      -14.6398263352  W2        5338            0.0000000000
     16014      5338  TIP3      H2             55.7881794280       11.0684475841      -13.2905863352  W2        5338            0.0000000000
     16015      5339  TIP3      OH2            58.1556594280        7.2688675841       -3.2411463352  W2        5339            0.0000000000
     16016      5339  TIP3      H1             58.2259794280        7.9195475841       -2.5426463352  W2        5339            0.0000000000
     16017      5339  TIP3      H2             57.2648794280        7.3716175841       -3.5760563352  W2        5339            0.0000000000
     16018      5340  TIP3      OH2            55.0723294280        9.3352775841       -4.4161463352  W2        5340            0.0000000000
     16019      5340  TIP3      H1             54.5711694280        9.3072175841       -5.2311763352  W2        5340            0.0000000000
     16020      5340  TIP3      H2             55.0776994280        8.4295975841       -4.1064163352  W2        5340            0.0000000000
     16021      5341  TIP3      OH2            54.8225994280       12.1156575841       -7.5321263352  W2        5341            0.0000000000
     16022      5341  TIP3      H1             55.7686594280       11.9713575841       -7.5511763352  W2        5341            0.0000000000
     16023      5341  TIP3      H2             54.7102294280       12.8999375841       -6.9950063352  W2        5341            0.0000000000
     16024      5342  TIP3      OH2            58.0668094280       14.9166175841      -11.3866563352  W2        5342            0.0000000000
     16025      5342  TIP3      H1             58.2188494280       14.5686575841      -10.5080063352  W2        5342            0.0000000000
     16026      5342  TIP3      H2             57.2158494280       14.5603475841      -11.6419363352  W2        5342            0.0000000000
     16027      5343  TIP3      OH2            57.3213794280       10.6588175841       -3.3728663352  W2        5343            0.0000000000
     16028      5343  TIP3      H1             57.5375094280       10.2973775841       -2.5132863352  W2        5343            0.0000000000
     16029      5343  TIP3      H2             56.4658494280       10.2841975841       -3.5825163352  W2        5343            0.0000000000
     16030      5344  TIP3      OH2            57.7812394280        4.4146675841       -4.4152263352  W2        5344            0.0000000000
     16031      5344  TIP3      H1             57.7431794280        4.8148275841       -3.5465163352  W2        5344            0.0000000000
     16032      5344  TIP3      H2             57.2903494280        3.5979075841       -4.3249363352  W2        5344            0.0000000000
     16033      5345  TIP3      OH2            54.3893194280        1.5308475841      -10.5647563352  W2        5345            0.0000000000
     16034      5345  TIP3      H1             55.0200894280        1.5020575841       -9.8453663352  W2        5345            0.0000000000
     16035      5345  TIP3      H2             54.8387494280        1.1057175841      -11.2951663352  W2        5345            0.0000000000
     16036      5346  TIP3      OH2            55.6635294280        2.2770475841      -15.1407163352  W2        5346            0.0000000000
     16037      5346  TIP3      H1             56.1376994280        2.8680375841      -15.7256263352  W2        5346            0.0000000000
     16038      5346  TIP3      H2             54.9461694280        2.8073375841      -14.7937063352  W2        5346            0.0000000000
     16039      5347  TIP3      OH2            57.4379694280        3.3717075841      -11.4572563352  W2        5347            0.0000000000
     16040      5347  TIP3      H1             56.5487694280        3.4712575841      -11.7972963352  W2        5347            0.0000000000
     16041      5347  TIP3      H2             57.7344594280        2.5300075841      -11.8034663352  W2        5347            0.0000000000
     16042      5348  TIP3      OH2            57.9003094280        9.1233775841       -1.1350263352  W2        5348            0.0000000000
     16043      5348  TIP3      H1             58.6325494280        9.3779675841       -0.5735763352  W2        5348            0.0000000000
     16044      5348  TIP3      H2             57.1201794280        9.3279175841       -0.6194863352  W2        5348            0.0000000000
     16045      5349  TIP3      OH2            58.2252794280        8.4267575841       -8.5285863352  W2        5349            0.0000000000
     16046      5349  TIP3      H1             58.9699994280        8.4243275841       -9.1299363352  W2        5349            0.0000000000
     16047      5349  TIP3      H2             58.3029394280        7.6031375841       -8.0470763352  W2        5349            0.0000000000
     16048      5350  TIP3      OH2            55.2332494280        6.8874475841       -3.2137363352  W2        5350            0.0000000000
     16049      5350  TIP3      H1             55.4561094280        6.4694075841       -2.3819863352  W2        5350            0.0000000000
     16050      5350  TIP3      H2             54.6312594280        6.2749475841       -3.6364563352  W2        5350            0.0000000000
     16051      5351  TIP3      OH2            56.3549894280        6.8069875841      -16.5371963352  W2        5351            0.0000000000
     16052      5351  TIP3      H1             56.9709794280        7.4337075841      -16.1577163352  W2        5351            0.0000000000
     16053      5351  TIP3      H2             55.4932494280        7.1229675841      -16.2655463352  W2        5351            0.0000000000
     16054      5352  TIP3      OH2            56.8671994280        1.6407175841       -3.6555963352  W2        5352            0.0000000000
     16055      5352  TIP3      H1             55.9744294280        1.9792575841       -3.7231963352  W2        5352            0.0000000000
     16056      5352  TIP3      H2             56.7684794280        0.7853275841       -3.2375163352  W2        5352            0.0000000000
     16057      5353  TIP3      OH2            56.5183994280       13.4451575841       -5.2206563352  W2        5353            0.0000000000
     16058      5353  TIP3      H1             56.7354294280       12.5133975841       -5.2516863352  W2        5353            0.0000000000
     16059      5353  TIP3      H2             56.7647494280       13.7196575841       -4.3373763352  W2        5353            0.0000000000
     16060      5354  TIP3      OH2            57.7700294280        8.7193675841      -15.0446363352  W2        5354            0.0000000000
     16061      5354  TIP3      H1             57.0839594280        9.0716175841      -14.4776663352  W2        5354            0.0000000000
     16062      5354  TIP3      H2             58.2928194280        9.4823275841      -15.2912063352  W2        5354            0.0000000000
     16063      5355  TIP3      OH2            58.3859194280       11.3332575841      -16.1478563352  W2        5355            0.0000000000
     16064      5355  TIP3      H1             58.9780694280       12.0327375841      -15.8716163352  W2        5355            0.0000000000
     16065      5355  TIP3      H2             58.8452194280       10.9002075841      -16.8673963352  W2        5355            0.0000000000
     16066      5356  TIP3      OH2            56.7018394280        3.9975575841      -17.0319163352  W2        5356            0.0000000000
     16067      5356  TIP3      H1             56.6570994280        4.9368675841      -16.8532163352  W2        5356            0.0000000000
     16068      5356  TIP3      H2             55.8141594280        3.7620475841      -17.3017063352  W2        5356            0.0000000000
     16069      5357  TIP3      OH2            57.5100394280       -1.2207824159       -8.3588163352  W2        5357            0.0000000000
     16070      5357  TIP3      H1             57.2810194280       -1.1615324159       -9.2863163352  W2        5357            0.0000000000
     16071      5357  TIP3      H2             57.0673794280       -2.0122324159       -8.0524063352  W2        5357            0.0000000000
     16072      5358  TIP3      OH2            56.4403694280       12.7199275841      -12.1982363352  W2        5358            0.0000000000
     16073      5358  TIP3      H1             55.6082294280       13.1921975841      -12.1710963352  W2        5358            0.0000000000
     16074      5358  TIP3      H2             56.9861994280       13.2296875841      -12.7969263352  W2        5358            0.0000000000
     16075      5359  TIP3      OH2            55.7287394280       15.3322975841       -0.8684363352  W2        5359            0.0000000000
     16076      5359  TIP3      H1             56.2689594280       15.1156975841       -0.1085163352  W2        5359            0.0000000000
     16077      5359  TIP3      H2             55.2475394280       14.5268975841       -1.0581863352  W2        5359            0.0000000000
     16078      5360  TIP3      OH2            55.6356894280        9.1427075841        0.0859936648  W2        5360            0.0000000000
     16079      5360  TIP3      H1             55.7797394280        8.2407775841       -0.2003363352  W2        5360            0.0000000000
     16080      5360  TIP3      H2             54.8634294280        9.4289175841       -0.4017763352  W2        5360            0.0000000000
     16081      5361  TIP3      OH2            56.4683394280        6.3430375841       -0.4940763352  W2        5361            0.0000000000
     16082      5361  TIP3      H1             56.8764594280        5.4856975841       -0.6150163352  W2        5361            0.0000000000
     16083      5361  TIP3      H2             56.2080994280        6.3571675841        0.4269536648  W2        5361            0.0000000000
     16084      5362  TIP3      OH2            57.4136494280        1.8254175841       -0.4214463352  W2        5362            0.0000000000
     16085      5362  TIP3      H1             57.6253894280        1.1190275841       -1.0316963352  W2        5362            0.0000000000
     16086      5362  TIP3      H2             57.3023994280        1.3880175841        0.4226736648  W2        5362            0.0000000000
     16087      5363  TIP3      OH2            55.6631394280       11.0288275841      -16.7292563352  W2        5363            0.0000000000
     16088      5363  TIP3      H1             56.5770594280       11.1077175841      -16.4558663352  W2        5363            0.0000000000
     16089      5363  TIP3      H2             55.6704494280       10.3417875841      -17.3956963352  W2        5363            0.0000000000
     16090      5364  TIP3      OH2            54.3121994280       16.4216775841      -11.6518663352  W2        5364            0.0000000000
     16091      5364  TIP3      H1             53.6649094280       15.9598475841      -12.1847463352  W2        5364            0.0000000000
     16092      5364  TIP3      H2             54.6666594280       15.7500075841      -11.0692463352  W2        5364            0.0000000000
     16093      5365  TIP3      OH2            55.1821194280       14.5023775841       -9.8472463352  W2        5365            0.0000000000
     16094      5365  TIP3      H1             54.8477994280       13.6221075841       -9.6752263352  W2        5365            0.0000000000
     16095      5365  TIP3      H2             55.4043594280       14.8478775841       -8.9826863352  W2        5365            0.0000000000
     16096      5366  TIP3      OH2            55.2620694280        7.5779175841       -7.3957563352  W2        5366            0.0000000000
     16097      5366  TIP3      H1             55.4463594280        7.4960875841       -8.3314663352  W2        5366            0.0000000000
     16098      5366  TIP3      H2             56.1113594280        7.4536175841       -6.9721163352  W2        5366            0.0000000000
     16099      5367  TIP3      OH2            54.8595494280        2.8484175841       -1.2548763352  W2        5367            0.0000000000
     16100      5367  TIP3      H1             55.7790394280        2.7262475841       -1.0185663352  W2        5367            0.0000000000
     16101      5367  TIP3      H2             54.4099994280        2.0983875841       -0.8655263352  W2        5367            0.0000000000
     16102      5368  TIP3      OH2            56.0807994280        1.1605775841       -8.3635863352  W2        5368            0.0000000000
     16103      5368  TIP3      H1             56.5259594280        0.3688275841       -8.0616163352  W2        5368            0.0000000000
     16104      5368  TIP3      H2             56.5470994280        1.8770975841       -7.9330263352  W2        5368            0.0000000000
     16105      5369  TIP3      OH2            54.3848294280        4.1598775841       -7.2945663352  W2        5369            0.0000000000
     16106      5369  TIP3      H1             54.8768094280        3.9389275841       -8.0853663352  W2        5369            0.0000000000
     16107      5369  TIP3      H2             54.7469194280        5.0002175841       -7.0136163352  W2        5369            0.0000000000
     16108      5370  TIP3      OH2            54.6984794280        0.4177875841      -13.2403263352  W2        5370            0.0000000000
     16109      5370  TIP3      H1             53.7733194280        0.6264475841      -13.3697763352  W2        5370            0.0000000000
     16110      5370  TIP3      H2             55.1524694280        0.9018675841      -13.9300963352  W2        5370            0.0000000000
     16111      5371  TIP3      OH2            54.6620194280       -0.8443124159       -4.8960763352  W2        5371            0.0000000000
     16112      5371  TIP3      H1             53.9970694280       -1.0902824159       -4.2529863352  W2        5371            0.0000000000
     16113      5371  TIP3      H2             54.2191494280       -0.2222724159       -5.4732763352  W2        5371            0.0000000000
     16114      5372  TIP3      OH2            56.8539494280       12.3310975841       -0.7514963352  W2        5372            0.0000000000
     16115      5372  TIP3      H1             56.0331994280       12.5057475841       -1.2120263352  W2        5372            0.0000000000
     16116      5372  TIP3      H2             56.6017294280       12.2575675841        0.1689436648  W2        5372            0.0000000000
     16117      5373  TIP3      OH2            57.2099094280       16.5616075841       -4.4455663352  W2        5373            0.0000000000
     16118      5373  TIP3      H1             56.4895494280       17.0017075841       -4.8967963352  W2        5373            0.0000000000
     16119      5373  TIP3      H2             56.8443094280       16.3110775841       -3.5971663352  W2        5373            0.0000000000
     16120      5374  TIP3      OH2            56.6247194280       15.1848575841       -7.5353863352  W2        5374            0.0000000000
     16121      5374  TIP3      H1             56.6063194280       14.7593675841       -6.6781563352  W2        5374            0.0000000000
     16122      5374  TIP3      H2             57.4295094280       14.8663575841       -7.9441663352  W2        5374            0.0000000000
     16123      5375  TIP3      OH2            57.1383994280       -1.3372524159      -11.0652763352  W2        5375            0.0000000000
     16124      5375  TIP3      H1             56.3613794280       -1.5717624159      -11.5726863352  W2        5375            0.0000000000
     16125      5375  TIP3      H2             57.6687594280       -2.1340424159      -11.0564763352  W2        5375            0.0000000000
     16126      5376  TIP3      OH2            55.9747394280       -1.5394424159      -15.2616663352  W2        5376            0.0000000000
     16127      5376  TIP3      H1             56.4138094280       -0.9283924159      -15.8533163352  W2        5376            0.0000000000
     16128      5376  TIP3      H2             55.3409794280       -1.0010324159      -14.7876663352  W2        5376            0.0000000000
     16129      5377  TIP3      OH2            55.8756894280       14.4087775841      -14.3641563352  W2        5377            0.0000000000
     16130      5377  TIP3      H1             55.1906794280       14.3706675841      -15.0316463352  W2        5377            0.0000000000
     16131      5377  TIP3      H2             55.8794094280       15.3215375841      -14.0759463352  W2        5377            0.0000000000
     16132      5378  TIP3      OH2            57.8356494280        0.3767075841      -16.8192563352  W2        5378            0.0000000000
     16133      5378  TIP3      H1             58.3269894280       -0.2530524159      -17.3467063352  W2        5378            0.0000000000
     16134      5378  TIP3      H2             58.4592794280        0.6726475841      -16.1561363352  W2        5378            0.0000000000
     16135      5379  TIP3      OH2            57.0961994280       -0.8230624159       -1.5476563352  W2        5379            0.0000000000
     16136      5379  TIP3      H1             56.7300194280       -1.5888024159       -1.1051863352  W2        5379            0.0000000000
     16137      5379  TIP3      H2             58.0090494280       -0.7940424159       -1.2611463352  W2        5379            0.0000000000
     16138      5380  TIP3      OH2            57.6938094280       15.3288575841      -17.3389463352  W2        5380            0.0000000000
     16139      5380  TIP3      H1             57.4262694280       15.6151475841      -16.4656363352  W2        5380            0.0000000000
     16140      5380  TIP3      H2             58.4650694280       14.7827775841      -17.1866963352  W2        5380            0.0000000000
     16141      5381  TIP3      OH2           -46.9193405720       26.6749775841      -11.1065263352  W2        5381            0.0000000000
     16142      5381  TIP3      H1            -46.8302305720       27.6187975841      -11.2388163352  W2        5381            0.0000000000
     16143      5381  TIP3      H2            -47.5575805720       26.3996175841      -11.7645863352  W2        5381            0.0000000000
     16144      5382  TIP3      OH2           -47.9862105720       25.9300475841       -7.6877063352  W2        5382            0.0000000000
     16145      5382  TIP3      H1            -48.0244605720       25.2836775841       -6.9827463352  W2        5382            0.0000000000
     16146      5382  TIP3      H2            -48.3085605720       25.4634875841       -8.4588363352  W2        5382            0.0000000000
     16147      5383  TIP3      OH2           -55.6177105720       25.5442575841       -6.0947163352  W2        5383            0.0000000000
     16148      5383  TIP3      H1            -55.5765005720       24.9185875841       -5.3714763352  W2        5383            0.0000000000
     16149      5383  TIP3      H2            -54.9149405720       26.1681175841       -5.9126763352  W2        5383            0.0000000000
     16150      5384  TIP3      OH2           -44.2801905720       28.8690875841       -9.3861963352  W2        5384            0.0000000000
     16151      5384  TIP3      H1            -44.7209205720       28.1486875841       -8.9356363352  W2        5384            0.0000000000
     16152      5384  TIP3      H2            -44.2932205720       29.5898075841       -8.7564263352  W2        5384            0.0000000000
     16153      5385  TIP3      OH2           -54.6944005720       29.9941475841       -7.5598063352  W2        5385            0.0000000000
     16154      5385  TIP3      H1            -55.0638805720       29.1921975841       -7.9293763352  W2        5385            0.0000000000
     16155      5385  TIP3      H2            -53.7532905720       29.8256375841       -7.5134663352  W2        5385            0.0000000000
     16156      5386  TIP3      OH2           -58.0843505720       23.6544075841      -12.1669263352  W2        5386            0.0000000000
     16157      5386  TIP3      H1            -58.5320105720       24.5002775841      -12.1852763352  W2        5386            0.0000000000
     16158      5386  TIP3      H2            -58.6452305720       23.0748275841      -12.6824163352  W2        5386            0.0000000000
     16159      5387  TIP3      OH2           -57.3737405720       25.8163675841      -10.0411263352  W2        5387            0.0000000000
     16160      5387  TIP3      H1            -57.1603905720       25.0465275841       -9.5138263352  W2        5387            0.0000000000
     16161      5387  TIP3      H2            -56.6359805720       25.9060375841      -10.6443663352  W2        5387            0.0000000000
     16162      5388  TIP3      OH2           -47.1686405720       33.9732575841       -9.1741563352  W2        5388            0.0000000000
     16163      5388  TIP3      H1            -46.5490005720       33.2967275841       -9.4472363352  W2        5388            0.0000000000
     16164      5388  TIP3      H2            -47.3769005720       33.7553375841       -8.2656663352  W2        5388            0.0000000000
     16165      5389  TIP3      OH2           -49.5967705720       28.3621875841       -7.2816063352  W2        5389            0.0000000000
     16166      5389  TIP3      H1            -49.2929805720       27.6763275841       -7.8761963352  W2        5389            0.0000000000
     16167      5389  TIP3      H2            -48.8753705720       28.4810575841       -6.6638063352  W2        5389            0.0000000000
     16168      5390  TIP3      OH2           -40.9337905720       19.9637175841       -6.4209863352  W2        5390            0.0000000000
     16169      5390  TIP3      H1            -40.8845705720       20.5738375841       -5.6850763352  W2        5390            0.0000000000
     16170      5390  TIP3      H2            -40.5082805720       20.4248075841       -7.1438763352  W2        5390            0.0000000000
     16171      5391  TIP3      OH2           -46.4560705720       22.7564275841       -6.9541263352  W2        5391            0.0000000000
     16172      5391  TIP3      H1            -46.3134805720       21.8101275841       -6.9339663352  W2        5391            0.0000000000
     16173      5391  TIP3      H2            -46.5621705720       22.9634075841       -7.8826363352  W2        5391            0.0000000000
     16174      5392  TIP3      OH2           -53.3012405720       20.8580675841       -9.6816463352  W2        5392            0.0000000000
     16175      5392  TIP3      H1            -53.2581305720       21.7179175841      -10.1000163352  W2        5392            0.0000000000
     16176      5392  TIP3      H2            -53.7588305720       20.3055375841      -10.3153263352  W2        5392            0.0000000000
     16177      5393  TIP3      OH2           -45.5789705720       20.9886275841      -11.2808163352  W2        5393            0.0000000000
     16178      5393  TIP3      H1            -44.9325405720       20.6599475841      -10.6560563352  W2        5393            0.0000000000
     16179      5393  TIP3      H2            -45.0690305720       21.5065275841      -11.9036763352  W2        5393            0.0000000000
     16180      5394  TIP3      OH2           -56.6810905720       23.2546475841       -8.9195063352  W2        5394            0.0000000000
     16181      5394  TIP3      H1            -56.0274305720       22.7048175841       -8.4874963352  W2        5394            0.0000000000
     16182      5394  TIP3      H2            -56.6571605720       22.9805475841       -9.8363063352  W2        5394            0.0000000000
     16183      5395  TIP3      OH2           -51.5246405720       24.8047775841       -9.7043563352  W2        5395            0.0000000000
     16184      5395  TIP3      H1            -50.9085405720       24.2783175841       -9.1949563352  W2        5395            0.0000000000
     16185      5395  TIP3      H2            -52.1107605720       24.1646475841      -10.1079963352  W2        5395            0.0000000000
     16186      5396  TIP3      OH2           -40.5423305720       21.4416375841       -4.1850063352  W2        5396            0.0000000000
     16187      5396  TIP3      H1            -41.2308705720       22.0997075841       -4.2803463352  W2        5396            0.0000000000
     16188      5396  TIP3      H2            -40.5268705720       21.2444275841       -3.2484663352  W2        5396            0.0000000000
     16189      5397  TIP3      OH2           -54.4910505720       19.7759075841       -5.6075663352  W2        5397            0.0000000000
     16190      5397  TIP3      H1            -54.7098805720       20.3059675841       -6.3739663352  W2        5397            0.0000000000
     16191      5397  TIP3      H2            -55.1589605720       20.0024575841       -4.9604263352  W2        5397            0.0000000000
     16192      5398  TIP3      OH2           -47.1220705720       29.2760175841      -12.0636563352  W2        5398            0.0000000000
     16193      5398  TIP3      H1            -47.4175605720       28.9532475841      -12.9149663352  W2        5398            0.0000000000
     16194      5398  TIP3      H2            -47.4462905720       30.1756875841      -12.0223963352  W2        5398            0.0000000000
     16195      5399  TIP3      OH2           -51.9219105720       27.4514775841       -5.3201963352  W2        5399            0.0000000000
     16196      5399  TIP3      H1            -52.6620005720       28.0496275841       -5.2166763352  W2        5399            0.0000000000
     16197      5399  TIP3      H2            -51.2079605720       28.0054375841       -5.6358363352  W2        5399            0.0000000000
     16198      5400  TIP3      OH2           -43.8151305720       20.2795575841       -9.3002263352  W2        5400            0.0000000000
     16199      5400  TIP3      H1            -44.0303305720       19.5138975841       -8.7676263352  W2        5400            0.0000000000
     16200      5400  TIP3      H2            -43.1593905720       20.7520175841       -8.7873763352  W2        5400            0.0000000000
     16201      5401  TIP3      OH2           -54.8973205720       21.6680875841       -7.6553463352  W2        5401            0.0000000000
     16202      5401  TIP3      H1            -54.2836905720       22.3008475841       -7.2821063352  W2        5401            0.0000000000
     16203      5401  TIP3      H2            -54.3852505720       21.1955875841       -8.3116563352  W2        5401            0.0000000000
     16204      5402  TIP3      OH2           -53.5144805720       29.4157775841       -4.5330463352  W2        5402            0.0000000000
     16205      5402  TIP3      H1            -53.5197205720       30.2951275841       -4.9111163352  W2        5402            0.0000000000
     16206      5402  TIP3      H2            -54.3680705720       29.3321875841       -4.1080563352  W2        5402            0.0000000000
     16207      5403  TIP3      OH2           -57.3933905720       29.0865675841      -13.7511163352  W2        5403            0.0000000000
     16208      5403  TIP3      H1            -57.6653005720       29.3156675841      -14.6398263352  W2        5403            0.0000000000
     16209      5403  TIP3      H2            -57.3478205720       29.9244475841      -13.2905863352  W2        5403            0.0000000000
     16210      5404  TIP3      OH2           -43.7684205720       30.7081575841       -7.0382663352  W2        5404            0.0000000000
     16211      5404  TIP3      H1            -44.7100505720       30.7665475841       -6.8765763352  W2        5404            0.0000000000
     16212      5404  TIP3      H2            -43.4918105720       31.6142075841       -7.1752963352  W2        5404            0.0000000000
     16213      5405  TIP3      OH2           -43.4677205720       18.9946875841       -5.6208763352  W2        5405            0.0000000000
     16214      5405  TIP3      H1            -44.2038005720       19.6053975841       -5.6587463352  W2        5405            0.0000000000
     16215      5405  TIP3      H2            -42.7843205720       19.4095875841       -6.1472363352  W2        5405            0.0000000000
     16216      5406  TIP3      OH2           -50.4645805720       17.0814175841       -8.1550763352  W2        5406            0.0000000000
     16217      5406  TIP3      H1            -50.5821605720       16.1330175841       -8.2092463352  W2        5406            0.0000000000
     16218      5406  TIP3      H2            -51.3195705720       17.4140275841       -7.8819663352  W2        5406            0.0000000000
     16219      5407  TIP3      OH2           -45.5163005720       32.4895075841      -10.4131063352  W2        5407            0.0000000000
     16220      5407  TIP3      H1            -45.0910705720       31.7822975841      -10.8981463352  W2        5407            0.0000000000
     16221      5407  TIP3      H2            -45.1993005720       33.2907775841      -10.8298863352  W2        5407            0.0000000000
     16222      5408  TIP3      OH2           -44.3566505720       30.3903575841      -11.9044463352  W2        5408            0.0000000000
     16223      5408  TIP3      H1            -44.6141705720       29.7003675841      -12.5158563352  W2        5408            0.0000000000
     16224      5408  TIP3      H2            -44.2855705720       29.9474775841      -11.0588563352  W2        5408            0.0000000000
     16225      5409  TIP3      OH2           -42.6706305720       28.9570275841       -3.4270963352  W2        5409            0.0000000000
     16226      5409  TIP3      H1            -42.5310005720       28.3652775841       -4.1663963352  W2        5409            0.0000000000
     16227      5409  TIP3      H2            -42.5033505720       29.8296175841       -3.7832163352  W2        5409            0.0000000000
     16228      5410  TIP3      OH2           -48.1980905720       25.9189775841      -13.6544963352  W2        5410            0.0000000000
     16229      5410  TIP3      H1            -48.9095405720       26.4539475841      -14.0064463352  W2        5410            0.0000000000
     16230      5410  TIP3      H2            -47.5071305720       25.9741875841      -14.3146063352  W2        5410            0.0000000000
     16231      5411  TIP3      OH2           -48.1441705720       24.3764075841      -16.6159963352  W2        5411            0.0000000000
     16232      5411  TIP3      H1            -47.4431805720       24.3990975841      -15.9645963352  W2        5411            0.0000000000
     16233      5411  TIP3      H2            -47.8418805720       23.7483775841      -17.2720663352  W2        5411            0.0000000000
     16234      5412  TIP3      OH2           -40.8287005720       25.2968275841       -5.3610563352  W2        5412            0.0000000000
     16235      5412  TIP3      H1            -41.4812905720       25.9913875841       -5.2719663352  W2        5412            0.0000000000
     16236      5412  TIP3      H2            -40.3636705720       25.5069175841       -6.1708963352  W2        5412            0.0000000000
     16237      5413  TIP3      OH2           -44.7923205720       26.1283075841      -12.7029063352  W2        5413            0.0000000000
     16238      5413  TIP3      H1            -45.5242205720       26.3566775841      -12.1298463352  W2        5413            0.0000000000
     16239      5413  TIP3      H2            -44.3451005720       25.4145775841      -12.2481563352  W2        5413            0.0000000000
     16240      5414  TIP3      OH2           -44.8949705720       24.3025675841       -3.6352063352  W2        5414            0.0000000000
     16241      5414  TIP3      H1            -44.8150605720       25.0660075841       -3.0633563352  W2        5414            0.0000000000
     16242      5414  TIP3      H2            -45.4962005720       24.5818075841       -4.3256963352  W2        5414            0.0000000000
     16243      5415  TIP3      OH2           -53.1469505720       26.7589275841      -10.8204063352  W2        5415            0.0000000000
     16244      5415  TIP3      H1            -53.4774305720       26.3882675841      -11.6387063352  W2        5415            0.0000000000
     16245      5415  TIP3      H2            -52.5585405720       26.0883275841      -10.4735763352  W2        5415            0.0000000000
     16246      5416  TIP3      OH2           -51.7802005720       30.1869875841       -8.1391863352  W2        5416            0.0000000000
     16247      5416  TIP3      H1            -51.8750705720       29.6082975841       -8.8957263352  W2        5416            0.0000000000
     16248      5416  TIP3      H2            -51.0508405720       29.8155575841       -7.6429063352  W2        5416            0.0000000000
     16249      5417  TIP3      OH2           -52.7804005720       25.5274875841       -7.1869063352  W2        5417            0.0000000000
     16250      5417  TIP3      H1            -52.2151505720       25.6489075841       -7.9497863352  W2        5417            0.0000000000
     16251      5417  TIP3      H2            -52.4615105720       26.1649875841       -6.5480563352  W2        5417            0.0000000000
     16252      5418  TIP3      OH2           -46.4711805720       31.0306775841       -6.4528563352  W2        5418            0.0000000000
     16253      5418  TIP3      H1            -46.7115205720       31.6929875841       -5.8049363352  W2        5418            0.0000000000
     16254      5418  TIP3      H2            -46.6693605720       30.1961975841       -6.0278963352  W2        5418            0.0000000000
     16255      5419  TIP3      OH2           -51.9003305720       29.9267575841       -2.4697163352  W2        5419            0.0000000000
     16256      5419  TIP3      H1            -52.2115805720       30.7090775841       -2.0143963352  W2        5419            0.0000000000
     16257      5419  TIP3      H2            -52.5503105720       29.7736675841       -3.1555163352  W2        5419            0.0000000000
     16258      5420  TIP3      OH2           -45.9213705720       25.2905975841      -15.0177863352  W2        5420            0.0000000000
     16259      5420  TIP3      H1            -45.3418205720       25.4406275841      -14.2708963352  W2        5420            0.0000000000
     16260      5420  TIP3      H2            -45.5073705720       25.7613375841      -15.7411463352  W2        5420            0.0000000000
     16261      5421  TIP3      OH2           -54.9803405720       26.1248675841       -3.2411463352  W2        5421            0.0000000000
     16262      5421  TIP3      H1            -54.9100205720       26.7755475841       -2.5426463352  W2        5421            0.0000000000
     16263      5421  TIP3      H2            -55.8711205720       26.2276175841       -3.5760563352  W2        5421            0.0000000000
     16264      5422  TIP3      OH2           -48.1948805720       32.0274475841      -11.5824763352  W2        5422            0.0000000000
     16265      5422  TIP3      H1            -47.7211205720       32.3230775841      -10.8050563352  W2        5422            0.0000000000
     16266      5422  TIP3      H2            -48.7579505720       32.7656075841      -11.8155163352  W2        5422            0.0000000000
     16267      5423  TIP3      OH2           -53.6607405720       31.9982575841       -1.7063363352  W2        5423            0.0000000000
     16268      5423  TIP3      H1            -53.6532105720       31.8622275841       -2.6537863352  W2        5423            0.0000000000
     16269      5423  TIP3      H2            -54.5767005720       31.8810675841       -1.4543363352  W2        5423            0.0000000000
     16270      5424  TIP3      OH2           -42.2225305720       17.0406375841      -15.2048163352  W2        5424            0.0000000000
     16271      5424  TIP3      H1            -43.1224605720       17.1795375841      -14.9097563352  W2        5424            0.0000000000
     16272      5424  TIP3      H2            -41.9706905720       17.8720975841      -15.6066463352  W2        5424            0.0000000000
     16273      5425  TIP3      OH2           -54.1566805720       25.8283575841      -13.2311263352  W2        5425            0.0000000000
     16274      5425  TIP3      H1            -54.4485505720       26.5965275841      -13.7219963352  W2        5425            0.0000000000
     16275      5425  TIP3      H2            -54.8311605720       25.1689775841      -13.3939863352  W2        5425            0.0000000000
     16276      5426  TIP3      OH2           -41.0333905720       31.4068775841      -16.8284263352  W2        5426            0.0000000000
     16277      5426  TIP3      H1            -40.9600405720       32.3458975841      -16.6578963352  W2        5426            0.0000000000
     16278      5426  TIP3      H2            -40.1278805720       31.1017375841      -16.8846963352  W2        5426            0.0000000000
     16279      5427  TIP3      OH2           -58.0636705720       28.1912775841       -4.4161463352  W2        5427            0.0000000000
     16280      5427  TIP3      H1            -58.5648305720       28.1632175841       -5.2311763352  W2        5427            0.0000000000
     16281      5427  TIP3      H2            -58.0583005720       27.2855975841       -4.1064163352  W2        5427            0.0000000000
     16282      5428  TIP3      OH2           -58.3134005720       30.9716575841       -7.5321263352  W2        5428            0.0000000000
     16283      5428  TIP3      H1            -57.3673405720       30.8273575841       -7.5511763352  W2        5428            0.0000000000
     16284      5428  TIP3      H2            -58.4257705720       31.7559375841       -6.9950063352  W2        5428            0.0000000000
     16285      5429  TIP3      OH2           -40.1155505720       31.6376275841       -1.8497563352  W2        5429            0.0000000000
     16286      5429  TIP3      H1            -40.1648705720       30.6824375841       -1.8869963352  W2        5429            0.0000000000
     16287      5429  TIP3      H2            -40.9423205720       31.9051575841       -1.4483763352  W2        5429            0.0000000000
     16288      5430  TIP3      OH2           -49.1371505720       31.2115475841       -2.9736163352  W2        5430            0.0000000000
     16289      5430  TIP3      H1            -49.0496905720       32.0380075841       -2.4987063352  W2        5430            0.0000000000
     16290      5430  TIP3      H2            -50.0006405720       30.8819275841       -2.7246863352  W2        5430            0.0000000000
     16291      5431  TIP3      OH2           -48.7225705720       34.9839175841      -13.1675563352  W2        5431            0.0000000000
     16292      5431  TIP3      H1            -48.7979705720       34.8626375841      -14.1140363352  W2        5431            0.0000000000
     16293      5431  TIP3      H2            -48.6897005720       35.9331875841      -13.0490963352  W2        5431            0.0000000000
     16294      5432  TIP3      OH2           -55.0691905720       33.7726175841      -11.3866563352  W2        5432            0.0000000000
     16295      5432  TIP3      H1            -54.9171505720       33.4246575841      -10.5080063352  W2        5432            0.0000000000
     16296      5432  TIP3      H2            -55.9201505720       33.4163475841      -11.6419363352  W2        5432            0.0000000000
     16297      5433  TIP3      OH2           -45.6209705720       34.1379375841      -16.1653163352  W2        5433            0.0000000000
     16298      5433  TIP3      H1            -45.2461305720       33.3935475841      -16.6360563352  W2        5433            0.0000000000
     16299      5433  TIP3      H2            -45.6166005720       33.8679975841      -15.2469863352  W2        5433            0.0000000000
     16300      5434  TIP3      OH2           -45.9521605720       34.0636475841      -13.4160963352  W2        5434            0.0000000000
     16301      5434  TIP3      H1            -46.8871805720       34.1638375841      -13.2373963352  W2        5434            0.0000000000
     16302      5434  TIP3      H2            -45.6719705720       33.3542475841      -12.8377763352  W2        5434            0.0000000000
     16303      5435  TIP3      OH2           -42.9635705720       23.1308775841       -1.3695363352  W2        5435            0.0000000000
     16304      5435  TIP3      H1            -43.3708905720       23.6114375841       -2.0902063352  W2        5435            0.0000000000
     16305      5435  TIP3      H2            -42.9230005720       22.2254775841       -1.6774563352  W2        5435            0.0000000000
     16306      5436  TIP3      OH2           -55.8146205720       29.5148175841       -3.3728663352  W2        5436            0.0000000000
     16307      5436  TIP3      H1            -55.5984905720       29.1533775841       -2.5132863352  W2        5436            0.0000000000
     16308      5436  TIP3      H2            -56.6701505720       29.1401975841       -3.5825163352  W2        5436            0.0000000000
     16309      5437  TIP3      OH2           -53.1958205720       17.9848675841       -7.3774463352  W2        5437            0.0000000000
     16310      5437  TIP3      H1            -54.0574505720       17.8976875841       -7.7851563352  W2        5437            0.0000000000
     16311      5437  TIP3      H2            -53.2182505720       18.8408775841       -6.9496863352  W2        5437            0.0000000000
     16312      5438  TIP3      OH2           -48.5330405720       17.7069075841       -4.0027463352  W2        5438            0.0000000000
     16313      5438  TIP3      H1            -48.1127305720       17.2916175841       -3.2496863352  W2        5438            0.0000000000
     16314      5438  TIP3      H2            -49.4660805720       17.5282375841       -3.8855463352  W2        5438            0.0000000000
     16315      5439  TIP3      OH2           -45.2065505720       21.4624275841       -3.1492963352  W2        5439            0.0000000000
     16316      5439  TIP3      H1            -45.7206005720       21.3366475841       -2.3516963352  W2        5439            0.0000000000
     16317      5439  TIP3      H2            -45.3620805720       22.3747375841       -3.3936763352  W2        5439            0.0000000000
     16318      5440  TIP3      OH2           -44.4440605720       26.3234275841      -17.3879963352  W2        5440            0.0000000000
     16319      5440  TIP3      H1            -44.4019805720       26.1008175841      -18.3179963352  W2        5440            0.0000000000
     16320      5440  TIP3      H2            -43.5948505720       26.7221375841      -17.1980063352  W2        5440            0.0000000000
     16321      5441  TIP3      OH2           -48.8713105720       20.1992475841      -16.7176663352  W2        5441            0.0000000000
     16322      5441  TIP3      H1            -49.1248305720       20.2184075841      -15.7948563352  W2        5441            0.0000000000
     16323      5441  TIP3      H2            -49.1281005720       19.3277875841      -17.0190463352  W2        5441            0.0000000000
     16324      5442  TIP3      OH2           -53.1048105720       22.9503175841       -6.2824263352  W2        5442            0.0000000000
     16325      5442  TIP3      H1            -53.7466005720       22.9100475841       -5.5734163352  W2        5442            0.0000000000
     16326      5442  TIP3      H2            -53.0676105720       23.8767875841       -6.5201263352  W2        5442            0.0000000000
     16327      5443  TIP3      OH2           -53.1079005720       23.1713275841      -11.3704263352  W2        5443            0.0000000000
     16328      5443  TIP3      H1            -54.0006105720       22.8309375841      -11.4290463352  W2        5443            0.0000000000
     16329      5443  TIP3      H2            -52.6572405720       22.7944175841      -12.1261063352  W2        5443            0.0000000000
     16330      5444  TIP3      OH2           -47.5723505720       23.5873575841      -12.5533463352  W2        5444            0.0000000000
     16331      5444  TIP3      H1            -47.9813205720       24.4022175841      -12.8448663352  W2        5444            0.0000000000
     16332      5444  TIP3      H2            -46.8517305720       23.4473675841      -13.1676363352  W2        5444            0.0000000000
     16333      5445  TIP3      OH2           -48.4701905720       23.7629975841       -1.0652763352  W2        5445            0.0000000000
     16334      5445  TIP3      H1            -49.0328105720       23.0581575841       -0.7444963352  W2        5445            0.0000000000
     16335      5445  TIP3      H2            -47.6438505720       23.6421875841       -0.5975163352  W2        5445            0.0000000000
     16336      5446  TIP3      OH2           -46.5675805720       23.0333975841       -9.7393763352  W2        5446            0.0000000000
     16337      5446  TIP3      H1            -46.7631305720       23.6390775841      -10.4543163352  W2        5446            0.0000000000
     16338      5446  TIP3      H2            -46.3863205720       22.1999175841      -10.1737463352  W2        5446            0.0000000000
     16339      5447  TIP3      OH2           -55.3547605720       23.2706675841       -4.4152263352  W2        5447            0.0000000000
     16340      5447  TIP3      H1            -55.3928205720       23.6708275841       -3.5465163352  W2        5447            0.0000000000
     16341      5447  TIP3      H2            -55.8456505720       22.4539075841       -4.3249363352  W2        5447            0.0000000000
     16342      5448  TIP3      OH2           -51.9890205720       20.6448975841      -17.6166263352  W2        5448            0.0000000000
     16343      5448  TIP3      H1            -52.4199505720       20.1999075841      -16.8868863352  W2        5448            0.0000000000
     16344      5448  TIP3      H2            -52.7071505720       21.0165275841      -18.1288763352  W2        5448            0.0000000000
     16345      5449  TIP3      OH2           -58.7466805720       20.3868475841      -10.5647563352  W2        5449            0.0000000000
     16346      5449  TIP3      H1            -58.1159105720       20.3580575841       -9.8453663352  W2        5449            0.0000000000
     16347      5449  TIP3      H2            -58.2972505720       19.9617175841      -11.2951663352  W2        5449            0.0000000000
     16348      5450  TIP3      OH2           -57.4724705720       21.1330475841      -15.1407163352  W2        5450            0.0000000000
     16349      5450  TIP3      H1            -56.9983005720       21.7240375841      -15.7256263352  W2        5450            0.0000000000
     16350      5450  TIP3      H2            -58.1898305720       21.6633375841      -14.7937063352  W2        5450            0.0000000000
     16351      5451  TIP3      OH2           -47.3036605720       24.6715275841       -5.0681363352  W2        5451            0.0000000000
     16352      5451  TIP3      H1            -46.9801805720       24.0404975841       -5.7110863352  W2        5451            0.0000000000
     16353      5451  TIP3      H2            -47.7437305720       24.1367475841       -4.4073963352  W2        5451            0.0000000000
     16354      5452  TIP3      OH2           -50.5263705720       20.5990775841      -10.2840163352  W2        5452            0.0000000000
     16355      5452  TIP3      H1            -51.4372605720       20.6557575841       -9.9954163352  W2        5452            0.0000000000
     16356      5452  TIP3      H2            -50.0210805720       20.5386275841       -9.4732963352  W2        5452            0.0000000000
     16357      5453  TIP3      OH2           -55.6980305720       22.2277075841      -11.4572563352  W2        5453            0.0000000000
     16358      5453  TIP3      H1            -56.5872305720       22.3272575841      -11.7972963352  W2        5453            0.0000000000
     16359      5453  TIP3      H2            -55.4015405720       21.3860075841      -11.8034663352  W2        5453            0.0000000000
     16360      5454  TIP3      OH2           -52.0448505720       22.2279675841      -13.8007963352  W2        5454            0.0000000000
     16361      5454  TIP3      H1            -51.1133005720       22.3569675841      -13.6224863352  W2        5454            0.0000000000
     16362      5454  TIP3      H2            -52.2598205720       22.8973975841      -14.4503263352  W2        5454            0.0000000000
     16363      5455  TIP3      OH2           -46.1211805720       19.8337075841       -7.0198363352  W2        5455            0.0000000000
     16364      5455  TIP3      H1            -46.7980205720       19.9650175841       -6.3558663352  W2        5455            0.0000000000
     16365      5455  TIP3      H2            -46.6066905720       19.6786575841       -7.8300663352  W2        5455            0.0000000000
     16366      5456  TIP3      OH2           -53.3708305720       23.4221875841      -16.2341863352  W2        5456            0.0000000000
     16367      5456  TIP3      H1            -53.9133205720       23.0425675841      -16.9254263352  W2        5456            0.0000000000
     16368      5456  TIP3      H2            -52.5373405720       23.6166575841      -16.6627763352  W2        5456            0.0000000000
     16369      5457  TIP3      OH2           -42.8336705720       35.5052475841       -0.7430763352  W2        5457            0.0000000000
     16370      5457  TIP3      H1            -42.6338005720       35.9294375841       -1.5775463352  W2        5457            0.0000000000
     16371      5457  TIP3      H2            -42.1783005720       35.8490675841       -0.1360363352  W2        5457            0.0000000000
     16372      5458  TIP3      OH2           -55.2356905720       27.9793775841       -1.1350263352  W2        5458            0.0000000000
     16373      5458  TIP3      H1            -54.5034505720       28.2339675841       -0.5735763352  W2        5458            0.0000000000
     16374      5458  TIP3      H2            -56.0158205720       28.1839175841       -0.6194863352  W2        5458            0.0000000000
     16375      5459  TIP3      OH2           -49.2064005720       23.3863775841       -8.3970563352  W2        5459            0.0000000000
     16376      5459  TIP3      H1            -48.6420605720       22.8400375841       -8.9440963352  W2        5459            0.0000000000
     16377      5459  TIP3      H2            -49.3540605720       22.8645675841       -7.6082963352  W2        5459            0.0000000000
     16378      5460  TIP3      OH2           -54.2044305720       19.5229875841      -11.9785763352  W2        5460            0.0000000000
     16379      5460  TIP3      H1            -54.5214805720       18.6205175841      -12.0140363352  W2        5460            0.0000000000
     16380      5460  TIP3      H2            -53.4230205720       19.5247275841      -12.5314163352  W2        5460            0.0000000000
     16381      5461  TIP3      OH2           -50.5798105720       21.7749875841       -5.9830163352  W2        5461            0.0000000000
     16382      5461  TIP3      H1            -51.4152805720       22.2289375841       -5.8727763352  W2        5461            0.0000000000
     16383      5461  TIP3      H2            -50.0557505720       22.0508375841       -5.2310263352  W2        5461            0.0000000000
     16384      5462  TIP3      OH2           -50.0355505720       27.9877575841      -14.2983763352  W2        5462            0.0000000000
     16385      5462  TIP3      H1            -50.7804505720       27.4802875841      -14.6205863352  W2        5462            0.0000000000
     16386      5462  TIP3      H2            -50.1698305720       28.0365575841      -13.3518963352  W2        5462            0.0000000000
     16387      5463  TIP3      OH2           -42.8856605720       27.1205775841       -5.5116163352  W2        5463            0.0000000000
     16388      5463  TIP3      H1            -42.2437805720       27.5772075841       -6.0553963352  W2        5463            0.0000000000
     16389      5463  TIP3      H2            -43.7159705720       27.2338175841       -5.9742063352  W2        5463            0.0000000000
     16390      5464  TIP3      OH2           -46.1378705720       20.8017475841      -16.0991163352  W2        5464            0.0000000000
     16391      5464  TIP3      H1            -47.0764505720       20.9133075841      -16.2502363352  W2        5464            0.0000000000
     16392      5464  TIP3      H2            -45.8406605720       21.6584375841      -15.7925463352  W2        5464            0.0000000000
     16393      5465  TIP3      OH2           -48.5163405720       28.1720875841       -3.0614663352  W2        5465            0.0000000000
     16394      5465  TIP3      H1            -48.8617305720       27.7903275841       -2.2545063352  W2        5465            0.0000000000
     16395      5465  TIP3      H2            -48.7163305720       29.1054475841       -2.9901763352  W2        5465            0.0000000000
     16396      5466  TIP3      OH2           -45.4195205720       22.6690175841      -14.4383763352  W2        5466            0.0000000000
     16397      5466  TIP3      H1            -44.5276205720       22.5315175841      -14.1192563352  W2        5466            0.0000000000
     16398      5466  TIP3      H2            -45.3631605720       23.4596275841      -14.9750263352  W2        5466            0.0000000000
     16399      5467  TIP3      OH2           -54.9107205720       27.2827575841       -8.5285863352  W2        5467            0.0000000000
     16400      5467  TIP3      H1            -54.1660005720       27.2803275841       -9.1299363352  W2        5467            0.0000000000
     16401      5467  TIP3      H2            -54.8330605720       26.4591375841       -8.0470763352  W2        5467            0.0000000000
     16402      5468  TIP3      OH2           -47.9101405720       29.4461875841      -15.2729163352  W2        5468            0.0000000000
     16403      5468  TIP3      H1            -48.2053005720       30.2729775841      -14.8914363352  W2        5468            0.0000000000
     16404      5468  TIP3      H2            -48.6131405720       28.8268775841      -15.0767763352  W2        5468            0.0000000000
     16405      5469  TIP3      OH2           -57.9027505720       25.7434475841       -3.2137363352  W2        5469            0.0000000000
     16406      5469  TIP3      H1            -57.6798905720       25.3254075841       -2.3819863352  W2        5469            0.0000000000
     16407      5469  TIP3      H2            -58.5047405720       25.1309475841       -3.6364563352  W2        5469            0.0000000000
     16408      5470  TIP3      OH2           -50.8862605720       25.2604375841       -1.0007663352  W2        5470            0.0000000000
     16409      5470  TIP3      H1            -51.1821805720       25.0947375841       -1.8958563352  W2        5470            0.0000000000
     16410      5470  TIP3      H2            -49.9547405720       25.0404675841       -1.0113763352  W2        5470            0.0000000000
     16411      5471  TIP3      OH2           -46.2659805720       30.6336375841       -3.1109663352  W2        5471            0.0000000000
     16412      5471  TIP3      H1            -47.1665505720       30.8168975841       -3.3785763352  W2        5471            0.0000000000
     16413      5471  TIP3      H2            -46.2318705720       30.8925675841       -2.1900863352  W2        5471            0.0000000000
     16414      5472  TIP3      OH2           -40.5346505720       22.8784275841      -14.7437063352  W2        5472            0.0000000000
     16415      5472  TIP3      H1            -41.0890205720       22.4822275841      -15.4159563352  W2        5472            0.0000000000
     16416      5472  TIP3      H2            -40.4342905720       23.7889475841      -15.0213763352  W2        5472            0.0000000000
     16417      5473  TIP3      OH2           -40.5714505720       28.6785975841       -1.9065563352  W2        5473            0.0000000000
     16418      5473  TIP3      H1            -41.4226005720       28.9169775841       -2.2739163352  W2        5473            0.0000000000
     16419      5473  TIP3      H2            -39.9811105720       28.6619175841       -2.6598463352  W2        5473            0.0000000000
     16420      5474  TIP3      OH2           -42.2394805720       31.6644675841      -14.2784963352  W2        5474            0.0000000000
     16421      5474  TIP3      H1            -42.6123705720       30.8388475841      -13.9694363352  W2        5474            0.0000000000
     16422      5474  TIP3      H2            -41.9621305720       31.4814075841      -15.1761563352  W2        5474            0.0000000000
     16423      5475  TIP3      OH2           -45.0790905720       26.4724175841       -7.2573063352  W2        5475            0.0000000000
     16424      5475  TIP3      H1            -46.0074005720       26.2406075841       -7.2843763352  W2        5475            0.0000000000
     16425      5475  TIP3      H2            -44.6279805720       25.6953975841       -7.5874263352  W2        5475            0.0000000000
     16426      5476  TIP3      OH2           -52.5357805720       30.8005775841      -11.1244363352  W2        5476            0.0000000000
     16427      5476  TIP3      H1            -52.0085605720       31.5740175841      -11.3245563352  W2        5476            0.0000000000
     16428      5476  TIP3      H2            -53.4159305720       31.0254975841      -11.4260363352  W2        5476            0.0000000000
     16429      5477  TIP3      OH2           -56.7810105720       25.6629875841      -16.5371963352  W2        5477            0.0000000000
     16430      5477  TIP3      H1            -56.1650205720       26.2897075841      -16.1577163352  W2        5477            0.0000000000
     16431      5477  TIP3      H2            -57.6427505720       25.9789675841      -16.2655463352  W2        5477            0.0000000000
     16432      5478  TIP3      OH2           -51.1085505720       28.4635675841      -11.5480063352  W2        5478            0.0000000000
     16433      5478  TIP3      H1            -51.3495505720       29.3890075841      -11.5064763352  W2        5478            0.0000000000
     16434      5478  TIP3      H2            -51.8491905720       28.0046975841      -11.1516163352  W2        5478            0.0000000000
     16435      5479  TIP3      OH2           -50.5938905720       32.6129275841       -5.2328963352  W2        5479            0.0000000000
     16436      5479  TIP3      H1            -50.2314205720       33.4674875841       -5.4664563352  W2        5479            0.0000000000
     16437      5479  TIP3      H2            -50.0623705720       32.3210875841       -4.4922663352  W2        5479            0.0000000000
     16438      5480  TIP3      OH2           -52.4254705720       33.4853275841      -12.0027863352  W2        5480            0.0000000000
     16439      5480  TIP3      H1            -53.3754205720       33.5910675841      -11.9514563352  W2        5480            0.0000000000
     16440      5480  TIP3      H2            -52.0736605720       34.3060675841      -11.6580363352  W2        5480            0.0000000000
     16441      5481  TIP3      OH2           -47.0498105720       28.7119975841       -5.5323363352  W2        5481            0.0000000000
     16442      5481  TIP3      H1            -47.4756805720       28.4841675841       -4.7059363352  W2        5481            0.0000000000
     16443      5481  TIP3      H2            -46.4692305720       27.9731775841       -5.7148063352  W2        5481            0.0000000000
     16444      5482  TIP3      OH2           -44.8469205720       29.6410475841      -16.4584363352  W2        5482            0.0000000000
     16445      5482  TIP3      H1            -44.4936105720       29.2610275841      -15.6540863352  W2        5482            0.0000000000
     16446      5482  TIP3      H2            -45.7955705720       29.5475275841      -16.3715063352  W2        5482            0.0000000000
     16447      5483  TIP3      OH2           -44.3913905720       33.2639475841       -3.0628563352  W2        5483            0.0000000000
     16448      5483  TIP3      H1            -44.9930705720       32.7082375841       -3.5582263352  W2        5483            0.0000000000
     16449      5483  TIP3      H2            -44.1100205720       33.9309275841       -3.6891163352  W2        5483            0.0000000000
     16450      5484  TIP3      OH2           -40.3434805720       34.1202975841      -16.2574163352  W2        5484            0.0000000000
     16451      5484  TIP3      H1            -39.5996905720       34.7063475841      -16.3972563352  W2        5484            0.0000000000
     16452      5484  TIP3      H2            -41.0376705720       34.6888775841      -15.9241763352  W2        5484            0.0000000000
     16453      5485  TIP3      OH2           -56.2688005720       20.4967175841       -3.6555963352  W2        5485            0.0000000000
     16454      5485  TIP3      H1            -57.1615705720       20.8352575841       -3.7231963352  W2        5485            0.0000000000
     16455      5485  TIP3      H2            -56.3675205720       19.6413275841       -3.2375163352  W2        5485            0.0000000000
     16456      5486  TIP3      OH2           -43.9809905720       28.3132475841      -14.2316463352  W2        5486            0.0000000000
     16457      5486  TIP3      H1            -44.2582305720       27.5851775841      -13.6755363352  W2        5486            0.0000000000
     16458      5486  TIP3      H2            -43.0536905720       28.4324475841      -14.0263863352  W2        5486            0.0000000000
     16459      5487  TIP3      OH2           -56.6176005720       32.3011575841       -5.2206563352  W2        5487            0.0000000000
     16460      5487  TIP3      H1            -56.4005705720       31.3693975841       -5.2516863352  W2        5487            0.0000000000
     16461      5487  TIP3      H2            -56.3712505720       32.5756575841       -4.3373763352  W2        5487            0.0000000000
     16462      5488  TIP3      OH2           -50.7561405720       30.7526575841      -18.0114363352  W2        5488            0.0000000000
     16463      5488  TIP3      H1            -50.5171605720       30.0044675841      -18.5585463352  W2        5488            0.0000000000
     16464      5488  TIP3      H2            -51.0250105720       30.3648275841      -17.1786563352  W2        5488            0.0000000000
     16465      5489  TIP3      OH2           -51.8190805720       30.3230375841      -15.5551763352  W2        5489            0.0000000000
     16466      5489  TIP3      H1            -51.6722805720       29.8030175841      -14.7650863352  W2        5489            0.0000000000
     16467      5489  TIP3      H2            -51.8219105720       31.2297975841      -15.2485863352  W2        5489            0.0000000000
     16468      5490  TIP3      OH2           -55.3659705720       27.5753675841      -15.0446363352  W2        5490            0.0000000000
     16469      5490  TIP3      H1            -56.0520405720       27.9276175841      -14.4776663352  W2        5490            0.0000000000
     16470      5490  TIP3      H2            -54.8431805720       28.3383275841      -15.2912063352  W2        5490            0.0000000000
     16471      5491  TIP3      OH2           -47.5344605720       20.2377475841       -4.7657363352  W2        5491            0.0000000000
     16472      5491  TIP3      H1            -46.8356705720       20.3116175841       -4.1157663352  W2        5491            0.0000000000
     16473      5491  TIP3      H2            -47.9153205720       19.3732475841       -4.6114463352  W2        5491            0.0000000000
     16474      5492  TIP3      OH2           -46.7499705720       19.8899175841      -13.6685063352  W2        5492            0.0000000000
     16475      5492  TIP3      H1            -46.5301405720       20.3614575841      -14.4719663352  W2        5492            0.0000000000
     16476      5492  TIP3      H2            -46.1915705720       20.2841775841      -12.9984463352  W2        5492            0.0000000000
     16477      5493  TIP3      OH2           -49.0813605720       32.0203975841      -14.8057563352  W2        5493            0.0000000000
     16478      5493  TIP3      H1            -49.8977505720       32.5173675841      -14.7533263352  W2        5493            0.0000000000
     16479      5493  TIP3      H2            -48.5517305720       32.4957475841      -15.4458763352  W2        5493            0.0000000000
     16480      5494  TIP3      OH2           -49.5499805720       21.6177975841      -12.8336663352  W2        5494            0.0000000000
     16481      5494  TIP3      H1            -48.7377205720       22.1221175841      -12.7874963352  W2        5494            0.0000000000
     16482      5494  TIP3      H2            -49.7946805720       21.4727675841      -11.9197063352  W2        5494            0.0000000000
     16483      5495  TIP3      OH2           -49.0143405720       22.6040675841       -3.6490063352  W2        5495            0.0000000000
     16484      5495  TIP3      H1            -48.8953105720       23.1776075841       -2.8919663352  W2        5495            0.0000000000
     16485      5495  TIP3      H2            -48.3588805720       21.9160075841       -3.5342263352  W2        5495            0.0000000000
     16486      5496  TIP3      OH2           -48.6663105720       18.6990975841      -11.8955563352  W2        5496            0.0000000000
     16487      5496  TIP3      H1            -49.0129605720       19.3161575841      -11.2511263352  W2        5496            0.0000000000
     16488      5496  TIP3      H2            -48.0076205720       19.1996675841      -12.3770063352  W2        5496            0.0000000000
     16489      5497  TIP3      OH2           -51.7430505720       33.0641175841      -14.8240663352  W2        5497            0.0000000000
     16490      5497  TIP3      H1            -51.5821805720       33.8638675841      -15.3248063352  W2        5497            0.0000000000
     16491      5497  TIP3      H2            -51.9402705720       33.3707175841      -13.9390063352  W2        5497            0.0000000000
     16492      5498  TIP3      OH2           -53.0086105720       19.7620375841      -15.2083063352  W2        5498            0.0000000000
     16493      5498  TIP3      H1            -53.0921305720       20.6503475841      -14.8616663352  W2        5498            0.0000000000
     16494      5498  TIP3      H2            -52.1185805720       19.4967075841      -14.9766263352  W2        5498            0.0000000000
     16495      5499  TIP3      OH2           -42.8097605720       20.5110975841       -2.8140363352  W2        5499            0.0000000000
     16496      5499  TIP3      H1            -43.7261805720       20.7732675841       -2.9016663352  W2        5499            0.0000000000
     16497      5499  TIP3      H2            -42.4742605720       20.5079975841       -3.7105063352  W2        5499            0.0000000000
     16498      5500  TIP3      OH2           -44.2076605720       24.2611975841       -8.7183063352  W2        5500            0.0000000000
     16499      5500  TIP3      H1            -45.0052205720       23.8462175841       -9.0468063352  W2        5500            0.0000000000
     16500      5500  TIP3      H2            -43.7625505720       23.5705675841       -8.2272563352  W2        5500            0.0000000000
     16501      5501  TIP3      OH2           -54.7500805720       30.1892575841      -16.1478563352  W2        5501            0.0000000000
     16502      5501  TIP3      H1            -54.1579305720       30.8887375841      -15.8716163352  W2        5501            0.0000000000
     16503      5501  TIP3      H2            -54.2907805720       29.7562075841      -16.8673963352  W2        5501            0.0000000000
     16504      5502  TIP3      OH2           -56.4341605720       22.8535575841      -17.0319163352  W2        5502            0.0000000000
     16505      5502  TIP3      H1            -56.4789005720       23.7928675841      -16.8532163352  W2        5502            0.0000000000
     16506      5502  TIP3      H2            -57.3218405720       22.6180475841      -17.3017063352  W2        5502            0.0000000000
     16507      5503  TIP3      OH2           -43.1212005720       33.5174475841       -7.0959563352  W2        5503            0.0000000000
     16508      5503  TIP3      H1            -43.2767705720       34.1958875841       -7.7530263352  W2        5503            0.0000000000
     16509      5503  TIP3      H2            -42.1885605720       33.5893775841       -6.8928963352  W2        5503            0.0000000000
     16510      5504  TIP3      OH2           -55.6259605720       17.6352175841       -8.3588163352  W2        5504            0.0000000000
     16511      5504  TIP3      H1            -55.8549805720       17.6944675841       -9.2863163352  W2        5504            0.0000000000
     16512      5504  TIP3      H2            -56.0686205720       16.8437675841       -8.0524063352  W2        5504            0.0000000000
     16513      5505  TIP3      OH2           -56.6956305720       31.5759275841      -12.1982363352  W2        5505            0.0000000000
     16514      5505  TIP3      H1            -57.5277705720       32.0481975841      -12.1710963352  W2        5505            0.0000000000
     16515      5505  TIP3      H2            -56.1498005720       32.0856875841      -12.7969263352  W2        5505            0.0000000000
     16516      5506  TIP3      OH2           -57.4072605720       34.1882975841       -0.8684363352  W2        5506            0.0000000000
     16517      5506  TIP3      H1            -56.8670405720       33.9716975841       -0.1085163352  W2        5506            0.0000000000
     16518      5506  TIP3      H2            -57.8884605720       33.3828975841       -1.0581863352  W2        5506            0.0000000000
     16519      5507  TIP3      OH2           -52.8099205720       33.1077375841        0.7519836648  W2        5507            0.0000000000
     16520      5507  TIP3      H1            -52.0422005720       32.6488175841        1.0929036648  W2        5507            0.0000000000
     16521      5507  TIP3      H2            -52.8313005720       32.8817175841       -0.1778963352  W2        5507            0.0000000000
     16522      5508  TIP3      OH2           -48.7179605720       32.6157975841      -17.8728363352  W2        5508            0.0000000000
     16523      5508  TIP3      H1            -49.3618605720       31.9846575841      -17.5514663352  W2        5508            0.0000000000
     16524      5508  TIP3      H2            -47.9561305720       32.0845975841      -18.1044863352  W2        5508            0.0000000000
     16525      5509  TIP3      OH2           -46.2330505720       31.4878475841       -0.5188663352  W2        5509            0.0000000000
     16526      5509  TIP3      H1            -46.5841005720       30.6311475841       -0.2758263352  W2        5509            0.0000000000
     16527      5509  TIP3      H2            -45.5067305720       31.6305175841        0.0880336648  W2        5509            0.0000000000
     16528      5510  TIP3      OH2           -44.1136705720       32.4327875841      -17.6390363352  W2        5510            0.0000000000
     16529      5510  TIP3      H1            -43.8306305720       31.6383075841      -17.1863463352  W2        5510            0.0000000000
     16530      5510  TIP3      H2            -43.3738805720       32.6658875841      -18.1999263352  W2        5510            0.0000000000
     16531      5511  TIP3      OH2           -57.5003105720       27.9987075841        0.0859936648  W2        5511            0.0000000000
     16532      5511  TIP3      H1            -57.3562605720       27.0967775841       -0.2003363352  W2        5511            0.0000000000
     16533      5511  TIP3      H2            -58.2725705720       28.2849175841       -0.4017763352  W2        5511            0.0000000000
     16534      5512  TIP3      OH2           -53.1589405720       28.3422775841      -17.7815463352  W2        5512            0.0000000000
     16535      5512  TIP3      H1            -53.0945305720       27.5482375841      -17.2509063352  W2        5512            0.0000000000
     16536      5512  TIP3      H2            -52.5060205720       28.2235575841      -18.4713463352  W2        5512            0.0000000000
     16537      5513  TIP3      OH2           -50.8447005720       27.9685175841       -0.4813663352  W2        5513            0.0000000000
     16538      5513  TIP3      H1            -51.1733205720       28.2393275841       -1.3386263352  W2        5513            0.0000000000
     16539      5513  TIP3      H2            -50.6928805720       27.0274975841       -0.5688663352  W2        5513            0.0000000000
     16540      5514  TIP3      OH2           -47.8066005720       29.3894475841      -18.0457463352  W2        5514            0.0000000000
     16541      5514  TIP3      H1            -48.0751905720       29.5696575841      -17.1448563352  W2        5514            0.0000000000
     16542      5514  TIP3      H2            -48.0130405720       28.4640675841      -18.1771663352  W2        5514            0.0000000000
     16543      5515  TIP3      OH2           -45.1101805720       27.8842475841       -3.0981363352  W2        5515            0.0000000000
     16544      5515  TIP3      H1            -44.3647005720       28.4726175841       -3.2177363352  W2        5515            0.0000000000
     16545      5515  TIP3      H2            -45.8675005720       28.4662175841       -3.0348263352  W2        5515            0.0000000000
     16546      5516  TIP3      OH2           -56.6676605720       25.1990375841       -0.4940763352  W2        5516            0.0000000000
     16547      5516  TIP3      H1            -56.2595405720       24.3416975841       -0.6150163352  W2        5516            0.0000000000
     16548      5516  TIP3      H2            -56.9279005720       25.2131675841        0.4269536648  W2        5516            0.0000000000
     16549      5517  TIP3      OH2           -52.0095605720       26.3148975841      -15.4757463352  W2        5517            0.0000000000
     16550      5517  TIP3      H1            -52.4693605720       25.8307275841      -14.7898963352  W2        5517            0.0000000000
     16551      5517  TIP3      H2            -51.7546905720       25.6464375841      -16.1116963352  W2        5517            0.0000000000
     16552      5518  TIP3      OH2           -52.7206305720       24.2076075841       -3.1197863352  W2        5518            0.0000000000
     16553      5518  TIP3      H1            -53.3390205720       24.8822675841       -2.8393163352  W2        5518            0.0000000000
     16554      5518  TIP3      H2            -52.3765105720       24.5289975841       -3.9531663352  W2        5518            0.0000000000
     16555      5519  TIP3      OH2           -50.9385205720       24.5580775841      -17.2134263352  W2        5519            0.0000000000
     16556      5519  TIP3      H1            -51.1190205720       24.4031975841      -18.1405963352  W2        5519            0.0000000000
     16557      5519  TIP3      H2            -49.9884705720       24.6659475841      -17.1686363352  W2        5519            0.0000000000
     16558      5520  TIP3      OH2           -47.7008105720       26.6791375841        0.1576936648  W2        5520            0.0000000000
     16559      5520  TIP3      H1            -46.7476905720       26.7630475841        0.1302936648  W2        5520            0.0000000000
     16560      5520  TIP3      H2            -47.8613505720       25.9673175841        0.7771836648  W2        5520            0.0000000000
     16561      5521  TIP3      OH2           -41.5486905720       26.9124975841      -17.7676163352  W2        5521            0.0000000000
     16562      5521  TIP3      H1            -41.8222105720       26.4880475841      -18.5807863352  W2        5521            0.0000000000
     16563      5521  TIP3      H2            -41.5092805720       27.8439475841      -17.9845763352  W2        5521            0.0000000000
     16564      5522  TIP3      OH2           -52.3812605720       21.5626875841       -2.0374763352  W2        5522            0.0000000000
     16565      5522  TIP3      H1            -52.2311705720       20.8338175841       -2.6395063352  W2        5522            0.0000000000
     16566      5522  TIP3      H2            -52.3790205720       22.3398575841       -2.5962563352  W2        5522            0.0000000000
     16567      5523  TIP3      OH2           -51.9686905720       19.9322675841       -4.5447363352  W2        5523            0.0000000000
     16568      5523  TIP3      H1            -51.4329405720       20.3839375841       -5.1968063352  W2        5523            0.0000000000
     16569      5523  TIP3      H2            -52.8207305720       19.8242475841       -4.9673263352  W2        5523            0.0000000000
     16570      5524  TIP3      OH2           -50.3868505720       25.3718875841       -4.3052163352  W2        5524            0.0000000000
     16571      5524  TIP3      H1            -49.6363705720       25.2156375841       -4.8784363352  W2        5524            0.0000000000
     16572      5524  TIP3      H2            -50.7260205720       26.2235475841       -4.5806663352  W2        5524            0.0000000000
     16573      5525  TIP3      OH2           -45.9712305720       23.1870675841        0.7233136648  W2        5525            0.0000000000
     16574      5525  TIP3      H1            -45.7791005720       22.2560075841        0.6117636648  W2        5525            0.0000000000
     16575      5525  TIP3      H2            -45.1136005720       23.6120175841        0.7128536648  W2        5525            0.0000000000
     16576      5526  TIP3      OH2           -44.6545105720       25.9755875841       -1.1994163352  W2        5526            0.0000000000
     16577      5526  TIP3      H1            -44.9360105720       26.6850475841       -1.7770363352  W2        5526            0.0000000000
     16578      5526  TIP3      H2            -43.7120805720       25.9028875841       -1.3502963352  W2        5526            0.0000000000
     16579      5527  TIP3      OH2           -53.9026305720       22.7610375841       -0.1259163352  W2        5527            0.0000000000
     16580      5527  TIP3      H1            -54.6697305720       22.2285175841       -0.3361563352  W2        5527            0.0000000000
     16581      5527  TIP3      H2            -53.2237305720       22.4510775841       -0.7252863352  W2        5527            0.0000000000
     16582      5528  TIP3      OH2           -51.1631405720       17.3888375841       -4.1133763352  W2        5528            0.0000000000
     16583      5528  TIP3      H1            -51.2611805720       18.3351575841       -4.2187563352  W2        5528            0.0000000000
     16584      5528  TIP3      H2            -51.9055205720       17.0162175841       -4.5890263352  W2        5528            0.0000000000
     16585      5529  TIP3      OH2           -49.8990905720       21.7103775841       -0.5495363352  W2        5529            0.0000000000
     16586      5529  TIP3      H1            -50.1345505720       21.4910475841        0.3519536648  W2        5529            0.0000000000
     16587      5529  TIP3      H2            -50.6824005720       21.5034975841       -1.0592863352  W2        5529            0.0000000000
     16588      5530  TIP3      OH2           -47.1834305720       20.8377275841       -1.4741863352  W2        5530            0.0000000000
     16589      5530  TIP3      H1            -48.1308905720       20.8696975841       -1.3418563352  W2        5530            0.0000000000
     16590      5530  TIP3      H2            -46.8707605720       20.2124375841       -0.8203663352  W2        5530            0.0000000000
     16591      5531  TIP3      OH2           -45.5492805720       19.4718375841        0.5310036648  W2        5531            0.0000000000
     16592      5531  TIP3      H1            -45.6461005720       18.5195675841        0.5251936648  W2        5531            0.0000000000
     16593      5531  TIP3      H2            -45.8709705720       19.7405175841        1.3915536648  W2        5531            0.0000000000
     16594      5532  TIP3      OH2           -55.7223505720       20.6814175841       -0.4214463352  W2        5532            0.0000000000
     16595      5532  TIP3      H1            -55.5106105720       19.9750275841       -1.0316963352  W2        5532            0.0000000000
     16596      5532  TIP3      H2            -55.8336005720       20.2440175841        0.4226736648  W2        5532            0.0000000000
     16597      5533  TIP3      OH2           -50.9413305720       16.6825775841       -1.4420963352  W2        5533            0.0000000000
     16598      5533  TIP3      H1            -50.2294905720       16.0427975841       -1.4561863352  W2        5533            0.0000000000
     16599      5533  TIP3      H2            -51.0422905720       16.9494075841       -2.3557863352  W2        5533            0.0000000000
     16600      5534  TIP3      OH2           -50.5875805720       18.3654175841        0.6115336648  W2        5534            0.0000000000
     16601      5534  TIP3      H1            -50.7193605720       17.8897975841       -0.2086163352  W2        5534            0.0000000000
     16602      5534  TIP3      H2            -51.1868405720       19.1097775841        0.5562436648  W2        5534            0.0000000000
     16603      5535  TIP3      OH2           -51.0413505720       35.2484475841      -16.2120663352  W2        5535            0.0000000000
     16604      5535  TIP3      H1            -50.1082805720       35.4063175841      -16.0682263352  W2        5535            0.0000000000
     16605      5535  TIP3      H2            -51.3054705720       35.9237475841      -16.8369163352  W2        5535            0.0000000000
     16606      5536  TIP3      OH2           -57.4728605720       29.8848275841      -16.7292563352  W2        5536            0.0000000000
     16607      5536  TIP3      H1            -56.5589405720       29.9637175841      -16.4558663352  W2        5536            0.0000000000
     16608      5536  TIP3      H2            -57.4655505720       29.1977875841      -17.3956963352  W2        5536            0.0000000000
     16609      5537  TIP3      OH2           -58.8238005720       35.2776775841      -11.6518663352  W2        5537            0.0000000000
     16610      5537  TIP3      H1            -59.4710905720       34.8158475841      -12.1847463352  W2        5537            0.0000000000
     16611      5537  TIP3      H2            -58.4693405720       34.6060075841      -11.0692463352  W2        5537            0.0000000000
     16612      5538  TIP3      OH2           -57.9538805720       33.3583775841       -9.8472463352  W2        5538            0.0000000000
     16613      5538  TIP3      H1            -58.2882005720       32.4781075841       -9.6752263352  W2        5538            0.0000000000
     16614      5538  TIP3      H2            -57.7316405720       33.7038775841       -8.9826863352  W2        5538            0.0000000000
     16615      5539  TIP3      OH2           -40.4054005720       34.1680175841       -6.8667663352  W2        5539            0.0000000000
     16616      5539  TIP3      H1            -40.4267305720       34.3528575841       -5.9278263352  W2        5539            0.0000000000
     16617      5539  TIP3      H2            -39.7147805720       34.7364175841       -7.2076263352  W2        5539            0.0000000000
     16618      5540  TIP3      OH2           -40.8421105720       33.7351275841       -3.9448563352  W2        5540            0.0000000000
     16619      5540  TIP3      H1            -41.3292405720       32.9995375841       -4.3161163352  W2        5540            0.0000000000
     16620      5540  TIP3      H2            -40.2928405720       33.3415175841       -3.2669163352  W2        5540            0.0000000000
     16621      5541  TIP3      OH2           -42.3913805720       29.5249375841        0.6931736648  W2        5541            0.0000000000
     16622      5541  TIP3      H1            -43.2572705720       29.4199075841        1.0874036648  W2        5541            0.0000000000
     16623      5541  TIP3      H2            -42.0147905720       30.2832675841        1.1396436648  W2        5541            0.0000000000
     16624      5542  TIP3      OH2           -41.0904105720       27.7813075841      -13.7925763352  W2        5542            0.0000000000
     16625      5542  TIP3      H1            -40.2402705720       28.2023975841      -13.6654163352  W2        5542            0.0000000000
     16626      5542  TIP3      H2            -41.0849005720       27.0413175841      -13.1854363352  W2        5542            0.0000000000
     16627      5543  TIP3      OH2           -40.6958505720       25.8350475841      -11.9690063352  W2        5543            0.0000000000
     16628      5543  TIP3      H1            -41.4223905720       25.3553075841      -11.5712463352  W2        5543            0.0000000000
     16629      5543  TIP3      H2            -40.1145205720       26.0405175841      -11.2368463352  W2        5543            0.0000000000
     16630      5544  TIP3      OH2           -40.9367305720       28.6197975841       -7.0212463352  W2        5544            0.0000000000
     16631      5544  TIP3      H1            -40.1033105720       28.2417975841       -7.3018863352  W2        5544            0.0000000000
     16632      5544  TIP3      H2            -40.8247005720       29.5629175841       -7.1403363352  W2        5544            0.0000000000
     16633      5545  TIP3      OH2           -42.4505005720       31.4975475841       -4.7144063352  W2        5545            0.0000000000
     16634      5545  TIP3      H1            -43.0979705720       31.8226975841       -4.0888863352  W2        5545            0.0000000000
     16635      5545  TIP3      H2            -42.9681005720       31.0573175841       -5.3885763352  W2        5545            0.0000000000
     16636      5546  TIP3      OH2           -40.4275405720       25.7358975841      -15.5778763352  W2        5546            0.0000000000
     16637      5546  TIP3      H1            -40.9494305720       26.0923075841      -16.2967863352  W2        5546            0.0000000000
     16638      5546  TIP3      H2            -40.4606205720       26.4106775841      -14.8997863352  W2        5546            0.0000000000
     16639      5547  TIP3      OH2           -42.0786405720       22.9754575841      -17.0271663352  W2        5547            0.0000000000
     16640      5547  TIP3      H1            -41.9822005720       23.6421575841      -17.7071963352  W2        5547            0.0000000000
     16641      5547  TIP3      H2            -42.2186805720       22.1600875841      -17.5086163352  W2        5547            0.0000000000
     16642      5548  TIP3      OH2           -42.9091705720       24.3556975841      -11.4061363352  W2        5548            0.0000000000
     16643      5548  TIP3      H1            -43.0592905720       23.4105575841      -11.4263563352  W2        5548            0.0000000000
     16644      5548  TIP3      H2            -43.2627205720       24.6368375841      -10.5622263352  W2        5548            0.0000000000
     16645      5549  TIP3      OH2           -57.8739305720       26.4339175841       -7.3957563352  W2        5549            0.0000000000
     16646      5549  TIP3      H1            -57.6896405720       26.3520875841       -8.3314663352  W2        5549            0.0000000000
     16647      5549  TIP3      H2            -57.0246405720       26.3096175841       -6.9721163352  W2        5549            0.0000000000
     16648      5550  TIP3      OH2           -42.0528805720       26.3260275841       -1.7673063352  W2        5550            0.0000000000
     16649      5550  TIP3      H1            -41.4701505720       25.5912575841       -1.5755863352  W2        5550            0.0000000000
     16650      5550  TIP3      H2            -41.4889505720       27.0980575841       -1.7207263352  W2        5550            0.0000000000
     16651      5551  TIP3      OH2           -40.5561705720       24.2286075841       -1.0827663352  W2        5551            0.0000000000
     16652      5551  TIP3      H1            -41.4195005720       23.8498175841       -1.2482963352  W2        5551            0.0000000000
     16653      5551  TIP3      H2            -39.9518005720       23.4900875841       -1.1571863352  W2        5551            0.0000000000
     16654      5552  TIP3      OH2           -42.8312605720       20.3834375841      -17.9096163352  W2        5552            0.0000000000
     16655      5552  TIP3      H1            -42.2206805720       20.0121175841      -17.2727963352  W2        5552            0.0000000000
     16656      5552  TIP3      H2            -43.6681105720       19.9621275841      -17.7136163352  W2        5552            0.0000000000
     16657      5553  TIP3      OH2           -43.1986905720       21.9382775841      -12.9436263352  W2        5553            0.0000000000
     16658      5553  TIP3      H1            -42.9189805720       21.0313175841      -12.8194563352  W2        5553            0.0000000000
     16659      5553  TIP3      H2            -42.4395205720       22.3724275841      -13.3327063352  W2        5553            0.0000000000
     16660      5554  TIP3      OH2           -42.5868605720       22.5200175841       -7.5077363352  W2        5554            0.0000000000
     16661      5554  TIP3      H1            -41.6540605720       22.7320075841       -7.5421363352  W2        5554            0.0000000000
     16662      5554  TIP3      H2            -42.8221105720       22.6212275841       -6.5854363352  W2        5554            0.0000000000
     16663      5555  TIP3      OH2           -42.5576705720       23.2565475841       -4.7317963352  W2        5555            0.0000000000
     16664      5555  TIP3      H1            -43.4005405720       23.5245875841       -4.3658163352  W2        5555            0.0000000000
     16665      5555  TIP3      H2            -42.1152405720       24.0787375841       -4.9426863352  W2        5555            0.0000000000
     16666      5556  TIP3      OH2           -58.2764505720       21.7044175841       -1.2548763352  W2        5556            0.0000000000
     16667      5556  TIP3      H1            -57.3569605720       21.5822475841       -1.0185663352  W2        5556            0.0000000000
     16668      5556  TIP3      H2            -58.7260005720       20.9543875841       -0.8655263352  W2        5556            0.0000000000
     16669      5557  TIP3      OH2           -40.2745105720       17.2365675841        0.6217036648  W2        5557            0.0000000000
     16670      5557  TIP3      H1            -39.9248105720       16.5829175841        0.0161736648  W2        5557            0.0000000000
     16671      5557  TIP3      H2            -40.1275605720       18.0739775841        0.1819636648  W2        5557            0.0000000000
     16672      5558  TIP3      OH2           -42.5852105720       19.2012075841      -12.8954263352  W2        5558            0.0000000000
     16673      5558  TIP3      H1            -42.4027105720       18.7523575841      -12.0699263352  W2        5558            0.0000000000
     16674      5558  TIP3      H2            -43.1849205720       18.6166475841      -13.3589663352  W2        5558            0.0000000000
     16675      5559  TIP3      OH2           -57.0552005720       20.0165775841       -8.3635863352  W2        5559            0.0000000000
     16676      5559  TIP3      H1            -56.6100405720       19.2248275841       -8.0616163352  W2        5559            0.0000000000
     16677      5559  TIP3      H2            -56.5889005720       20.7330975841       -7.9330263352  W2        5559            0.0000000000
     16678      5560  TIP3      OH2           -58.7511705720       23.0158775841       -7.2945663352  W2        5560            0.0000000000
     16679      5560  TIP3      H1            -58.2591905720       22.7949275841       -8.0853663352  W2        5560            0.0000000000
     16680      5560  TIP3      H2            -58.3890805720       23.8562175841       -7.0136163352  W2        5560            0.0000000000
     16681      5561  TIP3      OH2           -40.7547905720       19.3460275841       -1.0291663352  W2        5561            0.0000000000
     16682      5561  TIP3      H1            -41.6722205720       19.6167375841       -1.0648163352  W2        5561            0.0000000000
     16683      5561  TIP3      H2            -40.6318505720       18.8108675841       -1.8131963352  W2        5561            0.0000000000
     16684      5562  TIP3      OH2           -40.7185905720       19.2690175841      -16.3673963352  W2        5562            0.0000000000
     16685      5562  TIP3      H1            -40.3063305720       18.5475875841      -16.8425963352  W2        5562            0.0000000000
     16686      5562  TIP3      H2            -40.0369405720       19.9384775841      -16.3089663352  W2        5562            0.0000000000
     16687      5563  TIP3      OH2           -58.4375205720       19.2737875841      -13.2403263352  W2        5563            0.0000000000
     16688      5563  TIP3      H1            -59.3626805720       19.4824475841      -13.3697763352  W2        5563            0.0000000000
     16689      5563  TIP3      H2            -57.9835305720       19.7578675841      -13.9300963352  W2        5563            0.0000000000
     16690      5564  TIP3      OH2           -43.6668005720       34.2579575841      -11.2945863352  W2        5564            0.0000000000
     16691      5564  TIP3      H1            -43.0145105720       33.9101675841      -11.9026763352  W2        5564            0.0000000000
     16692      5564  TIP3      H2            -43.1564205720       34.7462775841      -10.6486163352  W2        5564            0.0000000000
     16693      5565  TIP3      OH2           -58.4739805720       18.0116875841       -4.8960763352  W2        5565            0.0000000000
     16694      5565  TIP3      H1            -59.1389305720       17.7657175841       -4.2529863352  W2        5565            0.0000000000
     16695      5565  TIP3      H2            -58.9168505720       18.6337275841       -5.4732763352  W2        5565            0.0000000000
     16696      5566  TIP3      OH2           -56.2820505720       31.1870975841       -0.7514963352  W2        5566            0.0000000000
     16697      5566  TIP3      H1            -57.1028005720       31.3617475841       -1.2120263352  W2        5566            0.0000000000
     16698      5566  TIP3      H2            -56.5342705720       31.1135675841        0.1689436648  W2        5566            0.0000000000
     16699      5567  TIP3      OH2           -53.3277605720       32.1612175841       -4.4930963352  W2        5567            0.0000000000
     16700      5567  TIP3      H1            -53.7526505720       32.9710675841       -4.7756363352  W2        5567            0.0000000000
     16701      5567  TIP3      H2            -52.4234805720       32.2466275841       -4.7951163352  W2        5567            0.0000000000
     16702      5568  TIP3      OH2           -49.0166205720       33.5602175841       -1.5337263352  W2        5568            0.0000000000
     16703      5568  TIP3      H1            -48.8318705720       33.2268275841       -0.6556963352  W2        5568            0.0000000000
     16704      5568  TIP3      H2            -48.1701705720       33.8700775841       -1.8558063352  W2        5568            0.0000000000
     16705      5569  TIP3      OH2           -46.6715805720       34.8461075841       -2.2895863352  W2        5569            0.0000000000
     16706      5569  TIP3      H1            -45.9946905720       34.2133375841       -2.5296663352  W2        5569            0.0000000000
     16707      5569  TIP3      H2            -46.3497005720       35.2471575841       -1.4822563352  W2        5569            0.0000000000
     16708      5570  TIP3      OH2           -41.7542005720       17.4356575841       -3.2100863352  W2        5570            0.0000000000
     16709      5570  TIP3      H1            -42.5668505720       17.7606875841       -3.5976163352  W2        5570            0.0000000000
     16710      5570  TIP3      H2            -41.5213505720       16.6755075841       -3.7431763352  W2        5570            0.0000000000
     16711      5571  TIP3      OH2           -55.9260905720       35.4176075841       -4.4455663352  W2        5571            0.0000000000
     16712      5571  TIP3      H1            -56.6464505720       35.8577075841       -4.8967963352  W2        5571            0.0000000000
     16713      5571  TIP3      H2            -56.2916905720       35.1670775841       -3.5971663352  W2        5571            0.0000000000
     16714      5572  TIP3      OH2           -53.4588305720       35.0179975841       -5.4158463352  W2        5572            0.0000000000
     16715      5572  TIP3      H1            -54.3236105720       35.0898475841       -5.0118363352  W2        5572            0.0000000000
     16716      5572  TIP3      H2            -53.5139305720       35.5647275841       -6.1995963352  W2        5572            0.0000000000
     16717      5573  TIP3      OH2           -48.7482705720       34.9058875841       -6.2402463352  W2        5573            0.0000000000
     16718      5573  TIP3      H1            -49.2048705720       35.4348575841       -6.8944063352  W2        5573            0.0000000000
     16719      5573  TIP3      H2            -48.5854705720       35.5090275841       -5.5150163352  W2        5573            0.0000000000
     16720      5574  TIP3      OH2           -46.4206405720       33.7838475841       -5.2952163352  W2        5574            0.0000000000
     16721      5574  TIP3      H1            -47.3252705720       33.9488675841       -5.5610063352  W2        5574            0.0000000000
     16722      5574  TIP3      H2            -45.9917805720       34.6370675841       -5.3608763352  W2        5574            0.0000000000
     16723      5575  TIP3      OH2           -43.8164505720       35.3537575841       -5.0004363352  W2        5575            0.0000000000
     16724      5575  TIP3      H1            -43.9982505720       36.2696475841       -5.2109463352  W2        5575            0.0000000000
     16725      5575  TIP3      H2            -43.6396705720       34.9434675841       -5.8469763352  W2        5575            0.0000000000
     16726      5576  TIP3      OH2           -56.5112805720       34.0408575841       -7.5353863352  W2        5576            0.0000000000
     16727      5576  TIP3      H1            -56.5296805720       33.6153675841       -6.6781563352  W2        5576            0.0000000000
     16728      5576  TIP3      H2            -55.7064905720       33.7223575841       -7.9441663352  W2        5576            0.0000000000
     16729      5577  TIP3      OH2           -54.3699705720       32.7507275841       -8.8803963352  W2        5577            0.0000000000
     16730      5577  TIP3      H1            -54.5889005720       31.8344675841       -8.7107963352  W2        5577            0.0000000000
     16731      5577  TIP3      H2            -53.5457505720       32.8907675841       -8.4142563352  W2        5577            0.0000000000
     16732      5578  TIP3      OH2           -51.8327205720       33.2206575841       -8.0315963352  W2        5578            0.0000000000
     16733      5578  TIP3      H1            -51.6201505720       32.3325575841       -8.3185063352  W2        5578            0.0000000000
     16734      5578  TIP3      H2            -51.7682105720       33.1864275841       -7.0771963352  W2        5578            0.0000000000
     16735      5579  TIP3      OH2           -48.3243505720       18.8847175841       -8.8872663352  W2        5579            0.0000000000
     16736      5579  TIP3      H1            -48.9986705720       18.2552775841       -8.6316863352  W2        5579            0.0000000000
     16737      5579  TIP3      H2            -47.7604305720       18.4006075841       -9.4904763352  W2        5579            0.0000000000
     16738      5580  TIP3      OH2           -43.1816305720       16.9921175841       -8.7745563352  W2        5580            0.0000000000
     16739      5580  TIP3      H1            -42.5778705720       17.5396575841       -9.2764563352  W2        5580            0.0000000000
     16740      5580  TIP3      H2            -44.0514305720       17.3111575841       -9.0151463352  W2        5580            0.0000000000
     16741      5581  TIP3      OH2           -41.4545905720       18.1309875841      -10.4414663352  W2        5581            0.0000000000
     16742      5581  TIP3      H1            -40.8428405720       17.6165575841      -10.9681063352  W2        5581            0.0000000000
     16743      5581  TIP3      H2            -41.0722505720       19.0081975841      -10.4180263352  W2        5581            0.0000000000
     16744      5582  TIP3      OH2           -55.9976005720       17.5187475841      -11.0652763352  W2        5582            0.0000000000
     16745      5582  TIP3      H1            -56.7746205720       17.2842375841      -11.5726863352  W2        5582            0.0000000000
     16746      5582  TIP3      H2            -55.4672405720       16.7219575841      -11.0564763352  W2        5582            0.0000000000
     16747      5583  TIP3      OH2           -57.1612605720       17.3165575841      -15.2616663352  W2        5583            0.0000000000
     16748      5583  TIP3      H1            -56.7221905720       17.9276075841      -15.8533163352  W2        5583            0.0000000000
     16749      5583  TIP3      H2            -57.7950205720       17.8549675841      -14.7876663352  W2        5583            0.0000000000
     16750      5584  TIP3      OH2           -51.4183405720       17.4454575841      -11.2519663352  W2        5584            0.0000000000
     16751      5584  TIP3      H1            -50.5440005720       17.8338875841      -11.2815363352  W2        5584            0.0000000000
     16752      5584  TIP3      H2            -51.5542605720       17.2302375841      -10.3292463352  W2        5584            0.0000000000
     16753      5585  TIP3      OH2           -45.8615005720       17.4754375841       -9.6027963352  W2        5585            0.0000000000
     16754      5585  TIP3      H1            -45.7853405720       17.5705975841      -10.5521963352  W2        5585            0.0000000000
     16755      5585  TIP3      H2            -46.1365805720       16.5677275841       -9.4738863352  W2        5585            0.0000000000
     16756      5586  TIP3      OH2           -44.5082405720       17.5012175841      -13.9102963352  W2        5586            0.0000000000
     16757      5586  TIP3      H1            -45.2111305720       18.1161375841      -14.1201563352  W2        5586            0.0000000000
     16758      5586  TIP3      H2            -44.9531005720       16.6638875841      -13.7792063352  W2        5586            0.0000000000
     16759      5587  TIP3      OH2           -57.2603105720       33.2647775841      -14.3641563352  W2        5587            0.0000000000
     16760      5587  TIP3      H1            -57.9453205720       33.2266675841      -15.0316463352  W2        5587            0.0000000000
     16761      5587  TIP3      H2            -57.2565905720       34.1775375841      -14.0759463352  W2        5587            0.0000000000
     16762      5588  TIP3      OH2           -55.3003505720       19.2327075841      -16.8192563352  W2        5588            0.0000000000
     16763      5588  TIP3      H1            -54.8090105720       18.6029475841      -17.3467063352  W2        5588            0.0000000000
     16764      5588  TIP3      H2            -54.6767205720       19.5286475841      -16.1561363352  W2        5588            0.0000000000
     16765      5589  TIP3      OH2           -50.2743405720       19.5258575841      -14.3622063352  W2        5589            0.0000000000
     16766      5589  TIP3      H1            -50.0962105720       18.8791775841      -13.6793463352  W2        5589            0.0000000000
     16767      5589  TIP3      H2            -50.3277205720       20.3596275841      -13.8950963352  W2        5589            0.0000000000
     16768      5590  TIP3      OH2           -48.3959605720       34.4742675841      -15.9665363352  W2        5590            0.0000000000
     16769      5590  TIP3      H1            -47.5299405720       34.8410075841      -16.1447163352  W2        5590            0.0000000000
     16770      5590  TIP3      H2            -48.6426805720       34.0350675841      -16.7804563352  W2        5590            0.0000000000
     16771      5591  TIP3      OH2           -41.6870005720       34.0372975841      -13.2874263352  W2        5591            0.0000000000
     16772      5591  TIP3      H1            -41.8812905720       33.2895075841      -13.8524663352  W2        5591            0.0000000000
     16773      5591  TIP3      H2            -41.7259905720       34.7953075841      -13.8706363352  W2        5591            0.0000000000
     16774      5592  TIP3      OH2           -56.0398005720       18.0329375841       -1.5476563352  W2        5592            0.0000000000
     16775      5592  TIP3      H1            -56.4059805720       17.2671975841       -1.1051863352  W2        5592            0.0000000000
     16776      5592  TIP3      H2            -55.1269505720       18.0619575841       -1.2611463352  W2        5592            0.0000000000
     16777      5593  TIP3      OH2           -54.0667205720       17.3833775841       -0.0119463352  W2        5593            0.0000000000
     16778      5593  TIP3      H1            -53.1683605720       17.1093975841       -0.1966063352  W2        5593            0.0000000000
     16779      5593  TIP3      H2            -54.4534105720       16.6409775841        0.4523136648  W2        5593            0.0000000000
     16780      5594  TIP3      OH2           -55.4421905720       34.1848575841      -17.3389463352  W2        5594            0.0000000000
     16781      5594  TIP3      H1            -55.7097305720       34.4711475841      -16.4656363352  W2        5594            0.0000000000
     16782      5594  TIP3      H2            -54.6709305720       33.6387775841      -17.1866963352  W2        5594            0.0000000000
     16783      5595  TIP3      OH2           -45.6454905720       16.7159075841        0.1703336648  W2        5595            0.0000000000
     16784      5595  TIP3      H1            -45.5687705720       16.2899775841        1.0241036648  W2        5595            0.0000000000
     16785      5595  TIP3      H2            -44.7518305720       16.7293775841       -0.1723163352  W2        5595            0.0000000000
     16786      5596  TIP3      OH2           -42.4693805720       32.7885375841       -1.1372463352  W2        5596            0.0000000000
     16787      5596  TIP3      H1            -43.2511905720       32.6023375841       -1.6571863352  W2        5596            0.0000000000
     16788      5596  TIP3      H2            -42.5413905720       33.7179675841       -0.9199963352  W2        5596            0.0000000000
     16789      5597  TIP3      OH2           -28.0633405720       26.6749775841      -11.1065263352  W2        5597            0.0000000000
     16790      5597  TIP3      H1            -27.9742305720       27.6187975841      -11.2388163352  W2        5597            0.0000000000
     16791      5597  TIP3      H2            -28.7015805720       26.3996175841      -11.7645863352  W2        5597            0.0000000000
     16792      5598  TIP3      OH2           -29.1302105720       25.9300475841       -7.6877063352  W2        5598            0.0000000000
     16793      5598  TIP3      H1            -29.1684605720       25.2836775841       -6.9827463352  W2        5598            0.0000000000
     16794      5598  TIP3      H2            -29.4525605720       25.4634875841       -8.4588363352  W2        5598            0.0000000000
     16795      5599  TIP3      OH2           -36.7617105720       25.5442575841       -6.0947163352  W2        5599            0.0000000000
     16796      5599  TIP3      H1            -36.7205005720       24.9185875841       -5.3714763352  W2        5599            0.0000000000
     16797      5599  TIP3      H2            -36.0589405720       26.1681175841       -5.9126763352  W2        5599            0.0000000000
     16798      5600  TIP3      OH2           -25.4241905720       28.8690875841       -9.3861963352  W2        5600            0.0000000000
     16799      5600  TIP3      H1            -25.8649205720       28.1486875841       -8.9356363352  W2        5600            0.0000000000
     16800      5600  TIP3      H2            -25.4372205720       29.5898075841       -8.7564263352  W2        5600            0.0000000000
     16801      5601  TIP3      OH2           -35.8384005720       29.9941475841       -7.5598063352  W2        5601            0.0000000000
     16802      5601  TIP3      H1            -36.2078805720       29.1921975841       -7.9293763352  W2        5601            0.0000000000
     16803      5601  TIP3      H2            -34.8972905720       29.8256375841       -7.5134663352  W2        5601            0.0000000000
     16804      5602  TIP3      OH2           -39.2283505720       23.6544075841      -12.1669263352  W2        5602            0.0000000000
     16805      5602  TIP3      H1            -39.6760105720       24.5002775841      -12.1852763352  W2        5602            0.0000000000
     16806      5602  TIP3      H2            -39.7892305720       23.0748275841      -12.6824163352  W2        5602            0.0000000000
     16807      5603  TIP3      OH2           -38.5177405720       25.8163675841      -10.0411263352  W2        5603            0.0000000000
     16808      5603  TIP3      H1            -38.3043905720       25.0465275841       -9.5138263352  W2        5603            0.0000000000
     16809      5603  TIP3      H2            -37.7799805720       25.9060375841      -10.6443663352  W2        5603            0.0000000000
     16810      5604  TIP3      OH2           -28.3126405720       33.9732575841       -9.1741563352  W2        5604            0.0000000000
     16811      5604  TIP3      H1            -27.6930005720       33.2967275841       -9.4472363352  W2        5604            0.0000000000
     16812      5604  TIP3      H2            -28.5209005720       33.7553375841       -8.2656663352  W2        5604            0.0000000000
     16813      5605  TIP3      OH2           -30.7407705720       28.3621875841       -7.2816063352  W2        5605            0.0000000000
     16814      5605  TIP3      H1            -30.4369805720       27.6763275841       -7.8761963352  W2        5605            0.0000000000
     16815      5605  TIP3      H2            -30.0193705720       28.4810575841       -6.6638063352  W2        5605            0.0000000000
     16816      5606  TIP3      OH2           -22.0777905720       19.9637175841       -6.4209863352  W2        5606            0.0000000000
     16817      5606  TIP3      H1            -22.0285705720       20.5738375841       -5.6850763352  W2        5606            0.0000000000
     16818      5606  TIP3      H2            -21.6522805720       20.4248075841       -7.1438763352  W2        5606            0.0000000000
     16819      5607  TIP3      OH2           -27.6000705720       22.7564275841       -6.9541263352  W2        5607            0.0000000000
     16820      5607  TIP3      H1            -27.4574805720       21.8101275841       -6.9339663352  W2        5607            0.0000000000
     16821      5607  TIP3      H2            -27.7061705720       22.9634075841       -7.8826363352  W2        5607            0.0000000000
     16822      5608  TIP3      OH2           -34.4452405720       20.8580675841       -9.6816463352  W2        5608            0.0000000000
     16823      5608  TIP3      H1            -34.4021305720       21.7179175841      -10.1000163352  W2        5608            0.0000000000
     16824      5608  TIP3      H2            -34.9028305720       20.3055375841      -10.3153263352  W2        5608            0.0000000000
     16825      5609  TIP3      OH2           -26.7229705720       20.9886275841      -11.2808163352  W2        5609            0.0000000000
     16826      5609  TIP3      H1            -26.0765405720       20.6599475841      -10.6560563352  W2        5609            0.0000000000
     16827      5609  TIP3      H2            -26.2130305720       21.5065275841      -11.9036763352  W2        5609            0.0000000000
     16828      5610  TIP3      OH2           -37.8250905720       23.2546475841       -8.9195063352  W2        5610            0.0000000000
     16829      5610  TIP3      H1            -37.1714305720       22.7048175841       -8.4874963352  W2        5610            0.0000000000
     16830      5610  TIP3      H2            -37.8011605720       22.9805475841       -9.8363063352  W2        5610            0.0000000000
     16831      5611  TIP3      OH2           -32.6686405720       24.8047775841       -9.7043563352  W2        5611            0.0000000000
     16832      5611  TIP3      H1            -32.0525405720       24.2783175841       -9.1949563352  W2        5611            0.0000000000
     16833      5611  TIP3      H2            -33.2547605720       24.1646475841      -10.1079963352  W2        5611            0.0000000000
     16834      5612  TIP3      OH2           -21.6863305720       21.4416375841       -4.1850063352  W2        5612            0.0000000000
     16835      5612  TIP3      H1            -22.3748705720       22.0997075841       -4.2803463352  W2        5612            0.0000000000
     16836      5612  TIP3      H2            -21.6708705720       21.2444275841       -3.2484663352  W2        5612            0.0000000000
     16837      5613  TIP3      OH2           -35.6350505720       19.7759075841       -5.6075663352  W2        5613            0.0000000000
     16838      5613  TIP3      H1            -35.8538805720       20.3059675841       -6.3739663352  W2        5613            0.0000000000
     16839      5613  TIP3      H2            -36.3029605720       20.0024575841       -4.9604263352  W2        5613            0.0000000000
     16840      5614  TIP3      OH2           -28.2660705720       29.2760175841      -12.0636563352  W2        5614            0.0000000000
     16841      5614  TIP3      H1            -28.5615605720       28.9532475841      -12.9149663352  W2        5614            0.0000000000
     16842      5614  TIP3      H2            -28.5902905720       30.1756875841      -12.0223963352  W2        5614            0.0000000000
     16843      5615  TIP3      OH2           -33.0659105720       27.4514775841       -5.3201963352  W2        5615            0.0000000000
     16844      5615  TIP3      H1            -33.8060005720       28.0496275841       -5.2166763352  W2        5615            0.0000000000
     16845      5615  TIP3      H2            -32.3519605720       28.0054375841       -5.6358363352  W2        5615            0.0000000000
     16846      5616  TIP3      OH2           -24.9591305720       20.2795575841       -9.3002263352  W2        5616            0.0000000000
     16847      5616  TIP3      H1            -25.1743305720       19.5138975841       -8.7676263352  W2        5616            0.0000000000
     16848      5616  TIP3      H2            -24.3033905720       20.7520175841       -8.7873763352  W2        5616            0.0000000000
     16849      5617  TIP3      OH2           -36.0413205720       21.6680875841       -7.6553463352  W2        5617            0.0000000000
     16850      5617  TIP3      H1            -35.4276905720       22.3008475841       -7.2821063352  W2        5617            0.0000000000
     16851      5617  TIP3      H2            -35.5292505720       21.1955875841       -8.3116563352  W2        5617            0.0000000000
     16852      5618  TIP3      OH2           -34.6584805720       29.4157775841       -4.5330463352  W2        5618            0.0000000000
     16853      5618  TIP3      H1            -34.6637205720       30.2951275841       -4.9111163352  W2        5618            0.0000000000
     16854      5618  TIP3      H2            -35.5120705720       29.3321875841       -4.1080563352  W2        5618            0.0000000000
     16855      5619  TIP3      OH2           -38.5373905720       29.0865675841      -13.7511163352  W2        5619            0.0000000000
     16856      5619  TIP3      H1            -38.8093005720       29.3156675841      -14.6398263352  W2        5619            0.0000000000
     16857      5619  TIP3      H2            -38.4918205720       29.9244475841      -13.2905863352  W2        5619            0.0000000000
     16858      5620  TIP3      OH2           -24.9124205720       30.7081575841       -7.0382663352  W2        5620            0.0000000000
     16859      5620  TIP3      H1            -25.8540505720       30.7665475841       -6.8765763352  W2        5620            0.0000000000
     16860      5620  TIP3      H2            -24.6358105720       31.6142075841       -7.1752963352  W2        5620            0.0000000000
     16861      5621  TIP3      OH2           -24.6117205720       18.9946875841       -5.6208763352  W2        5621            0.0000000000
     16862      5621  TIP3      H1            -25.3478005720       19.6053975841       -5.6587463352  W2        5621            0.0000000000
     16863      5621  TIP3      H2            -23.9283205720       19.4095875841       -6.1472363352  W2        5621            0.0000000000
     16864      5622  TIP3      OH2           -31.6085805720       17.0814175841       -8.1550763352  W2        5622            0.0000000000
     16865      5622  TIP3      H1            -31.7261605720       16.1330175841       -8.2092463352  W2        5622            0.0000000000
     16866      5622  TIP3      H2            -32.4635705720       17.4140275841       -7.8819663352  W2        5622            0.0000000000
     16867      5623  TIP3      OH2           -26.6603005720       32.4895075841      -10.4131063352  W2        5623            0.0000000000
     16868      5623  TIP3      H1            -26.2350705720       31.7822975841      -10.8981463352  W2        5623            0.0000000000
     16869      5623  TIP3      H2            -26.3433005720       33.2907775841      -10.8298863352  W2        5623            0.0000000000
     16870      5624  TIP3      OH2           -25.5006505720       30.3903575841      -11.9044463352  W2        5624            0.0000000000
     16871      5624  TIP3      H1            -25.7581705720       29.7003675841      -12.5158563352  W2        5624            0.0000000000
     16872      5624  TIP3      H2            -25.4295705720       29.9474775841      -11.0588563352  W2        5624            0.0000000000
     16873      5625  TIP3      OH2           -23.8146305720       28.9570275841       -3.4270963352  W2        5625            0.0000000000
     16874      5625  TIP3      H1            -23.6750005720       28.3652775841       -4.1663963352  W2        5625            0.0000000000
     16875      5625  TIP3      H2            -23.6473505720       29.8296175841       -3.7832163352  W2        5625            0.0000000000
     16876      5626  TIP3      OH2           -29.3420905720       25.9189775841      -13.6544963352  W2        5626            0.0000000000
     16877      5626  TIP3      H1            -30.0535405720       26.4539475841      -14.0064463352  W2        5626            0.0000000000
     16878      5626  TIP3      H2            -28.6511305720       25.9741875841      -14.3146063352  W2        5626            0.0000000000
     16879      5627  TIP3      OH2           -29.2881705720       24.3764075841      -16.6159963352  W2        5627            0.0000000000
     16880      5627  TIP3      H1            -28.5871805720       24.3990975841      -15.9645963352  W2        5627            0.0000000000
     16881      5627  TIP3      H2            -28.9858805720       23.7483775841      -17.2720663352  W2        5627            0.0000000000
     16882      5628  TIP3      OH2           -21.9727005720       25.2968275841       -5.3610563352  W2        5628            0.0000000000
     16883      5628  TIP3      H1            -22.6252905720       25.9913875841       -5.2719663352  W2        5628            0.0000000000
     16884      5628  TIP3      H2            -21.5076705720       25.5069175841       -6.1708963352  W2        5628            0.0000000000
     16885      5629  TIP3      OH2           -25.9363205720       26.1283075841      -12.7029063352  W2        5629            0.0000000000
     16886      5629  TIP3      H1            -26.6682205720       26.3566775841      -12.1298463352  W2        5629            0.0000000000
     16887      5629  TIP3      H2            -25.4891005720       25.4145775841      -12.2481563352  W2        5629            0.0000000000
     16888      5630  TIP3      OH2           -26.0389705720       24.3025675841       -3.6352063352  W2        5630            0.0000000000
     16889      5630  TIP3      H1            -25.9590605720       25.0660075841       -3.0633563352  W2        5630            0.0000000000
     16890      5630  TIP3      H2            -26.6402005720       24.5818075841       -4.3256963352  W2        5630            0.0000000000
     16891      5631  TIP3      OH2           -34.2909505720       26.7589275841      -10.8204063352  W2        5631            0.0000000000
     16892      5631  TIP3      H1            -34.6214305720       26.3882675841      -11.6387063352  W2        5631            0.0000000000
     16893      5631  TIP3      H2            -33.7025405720       26.0883275841      -10.4735763352  W2        5631            0.0000000000
     16894      5632  TIP3      OH2           -32.9242005720       30.1869875841       -8.1391863352  W2        5632            0.0000000000
     16895      5632  TIP3      H1            -33.0190705720       29.6082975841       -8.8957263352  W2        5632            0.0000000000
     16896      5632  TIP3      H2            -32.1948405720       29.8155575841       -7.6429063352  W2        5632            0.0000000000
     16897      5633  TIP3      OH2           -33.9244005720       25.5274875841       -7.1869063352  W2        5633            0.0000000000
     16898      5633  TIP3      H1            -33.3591505720       25.6489075841       -7.9497863352  W2        5633            0.0000000000
     16899      5633  TIP3      H2            -33.6055105720       26.1649875841       -6.5480563352  W2        5633            0.0000000000
     16900      5634  TIP3      OH2           -27.6151805720       31.0306775841       -6.4528563352  W2        5634            0.0000000000
     16901      5634  TIP3      H1            -27.8555205720       31.6929875841       -5.8049363352  W2        5634            0.0000000000
     16902      5634  TIP3      H2            -27.8133605720       30.1961975841       -6.0278963352  W2        5634            0.0000000000
     16903      5635  TIP3      OH2           -33.0443305720       29.9267575841       -2.4697163352  W2        5635            0.0000000000
     16904      5635  TIP3      H1            -33.3555805720       30.7090775841       -2.0143963352  W2        5635            0.0000000000
     16905      5635  TIP3      H2            -33.6943105720       29.7736675841       -3.1555163352  W2        5635            0.0000000000
     16906      5636  TIP3      OH2           -27.0653705720       25.2905975841      -15.0177863352  W2        5636            0.0000000000
     16907      5636  TIP3      H1            -26.4858205720       25.4406275841      -14.2708963352  W2        5636            0.0000000000
     16908      5636  TIP3      H2            -26.6513705720       25.7613375841      -15.7411463352  W2        5636            0.0000000000
     16909      5637  TIP3      OH2           -36.1243405720       26.1248675841       -3.2411463352  W2        5637            0.0000000000
     16910      5637  TIP3      H1            -36.0540205720       26.7755475841       -2.5426463352  W2        5637            0.0000000000
     16911      5637  TIP3      H2            -37.0151205720       26.2276175841       -3.5760563352  W2        5637            0.0000000000
     16912      5638  TIP3      OH2           -29.3388805720       32.0274475841      -11.5824763352  W2        5638            0.0000000000
     16913      5638  TIP3      H1            -28.8651205720       32.3230775841      -10.8050563352  W2        5638            0.0000000000
     16914      5638  TIP3      H2            -29.9019505720       32.7656075841      -11.8155163352  W2        5638            0.0000000000
     16915      5639  TIP3      OH2           -34.8047405720       31.9982575841       -1.7063363352  W2        5639            0.0000000000
     16916      5639  TIP3      H1            -34.7972105720       31.8622275841       -2.6537863352  W2        5639            0.0000000000
     16917      5639  TIP3      H2            -35.7207005720       31.8810675841       -1.4543363352  W2        5639            0.0000000000
     16918      5640  TIP3      OH2           -23.3665305720       17.0406375841      -15.2048163352  W2        5640            0.0000000000
     16919      5640  TIP3      H1            -24.2664605720       17.1795375841      -14.9097563352  W2        5640            0.0000000000
     16920      5640  TIP3      H2            -23.1146905720       17.8720975841      -15.6066463352  W2        5640            0.0000000000
     16921      5641  TIP3      OH2           -35.3006805720       25.8283575841      -13.2311263352  W2        5641            0.0000000000
     16922      5641  TIP3      H1            -35.5925505720       26.5965275841      -13.7219963352  W2        5641            0.0000000000
     16923      5641  TIP3      H2            -35.9751605720       25.1689775841      -13.3939863352  W2        5641            0.0000000000
     16924      5642  TIP3      OH2           -22.1773905720       31.4068775841      -16.8284263352  W2        5642            0.0000000000
     16925      5642  TIP3      H1            -22.1040405720       32.3458975841      -16.6578963352  W2        5642            0.0000000000
     16926      5642  TIP3      H2            -21.2718805720       31.1017375841      -16.8846963352  W2        5642            0.0000000000
     16927      5643  TIP3      OH2           -39.2076705720       28.1912775841       -4.4161463352  W2        5643            0.0000000000
     16928      5643  TIP3      H1            -39.7088305720       28.1632175841       -5.2311763352  W2        5643            0.0000000000
     16929      5643  TIP3      H2            -39.2023005720       27.2855975841       -4.1064163352  W2        5643            0.0000000000
     16930      5644  TIP3      OH2           -39.4574005720       30.9716575841       -7.5321263352  W2        5644            0.0000000000
     16931      5644  TIP3      H1            -38.5113405720       30.8273575841       -7.5511763352  W2        5644            0.0000000000
     16932      5644  TIP3      H2            -39.5697705720       31.7559375841       -6.9950063352  W2        5644            0.0000000000
     16933      5645  TIP3      OH2           -21.2595505720       31.6376275841       -1.8497563352  W2        5645            0.0000000000
     16934      5645  TIP3      H1            -21.3088705720       30.6824375841       -1.8869963352  W2        5645            0.0000000000
     16935      5645  TIP3      H2            -22.0863205720       31.9051575841       -1.4483763352  W2        5645            0.0000000000
     16936      5646  TIP3      OH2           -30.2811505720       31.2115475841       -2.9736163352  W2        5646            0.0000000000
     16937      5646  TIP3      H1            -30.1936905720       32.0380075841       -2.4987063352  W2        5646            0.0000000000
     16938      5646  TIP3      H2            -31.1446405720       30.8819275841       -2.7246863352  W2        5646            0.0000000000
     16939      5647  TIP3      OH2           -29.8665705720       34.9839175841      -13.1675563352  W2        5647            0.0000000000
     16940      5647  TIP3      H1            -29.9419705720       34.8626375841      -14.1140363352  W2        5647            0.0000000000
     16941      5647  TIP3      H2            -29.8337005720       35.9331875841      -13.0490963352  W2        5647            0.0000000000
     16942      5648  TIP3      OH2           -36.2131905720       33.7726175841      -11.3866563352  W2        5648            0.0000000000
     16943      5648  TIP3      H1            -36.0611505720       33.4246575841      -10.5080063352  W2        5648            0.0000000000
     16944      5648  TIP3      H2            -37.0641505720       33.4163475841      -11.6419363352  W2        5648            0.0000000000
     16945      5649  TIP3      OH2           -26.7649705720       34.1379375841      -16.1653163352  W2        5649            0.0000000000
     16946      5649  TIP3      H1            -26.3901305720       33.3935475841      -16.6360563352  W2        5649            0.0000000000
     16947      5649  TIP3      H2            -26.7606005720       33.8679975841      -15.2469863352  W2        5649            0.0000000000
     16948      5650  TIP3      OH2           -27.0961605720       34.0636475841      -13.4160963352  W2        5650            0.0000000000
     16949      5650  TIP3      H1            -28.0311805720       34.1638375841      -13.2373963352  W2        5650            0.0000000000
     16950      5650  TIP3      H2            -26.8159705720       33.3542475841      -12.8377763352  W2        5650            0.0000000000
     16951      5651  TIP3      OH2           -24.1075705720       23.1308775841       -1.3695363352  W2        5651            0.0000000000
     16952      5651  TIP3      H1            -24.5148905720       23.6114375841       -2.0902063352  W2        5651            0.0000000000
     16953      5651  TIP3      H2            -24.0670005720       22.2254775841       -1.6774563352  W2        5651            0.0000000000
     16954      5652  TIP3      OH2           -36.9586205720       29.5148175841       -3.3728663352  W2        5652            0.0000000000
     16955      5652  TIP3      H1            -36.7424905720       29.1533775841       -2.5132863352  W2        5652            0.0000000000
     16956      5652  TIP3      H2            -37.8141505720       29.1401975841       -3.5825163352  W2        5652            0.0000000000
     16957      5653  TIP3      OH2           -34.3398205720       17.9848675841       -7.3774463352  W2        5653            0.0000000000
     16958      5653  TIP3      H1            -35.2014505720       17.8976875841       -7.7851563352  W2        5653            0.0000000000
     16959      5653  TIP3      H2            -34.3622505720       18.8408775841       -6.9496863352  W2        5653            0.0000000000
     16960      5654  TIP3      OH2           -29.6770405720       17.7069075841       -4.0027463352  W2        5654            0.0000000000
     16961      5654  TIP3      H1            -29.2567305720       17.2916175841       -3.2496863352  W2        5654            0.0000000000
     16962      5654  TIP3      H2            -30.6100805720       17.5282375841       -3.8855463352  W2        5654            0.0000000000
     16963      5655  TIP3      OH2           -26.3505505720       21.4624275841       -3.1492963352  W2        5655            0.0000000000
     16964      5655  TIP3      H1            -26.8646005720       21.3366475841       -2.3516963352  W2        5655            0.0000000000
     16965      5655  TIP3      H2            -26.5060805720       22.3747375841       -3.3936763352  W2        5655            0.0000000000
     16966      5656  TIP3      OH2           -25.5880605720       26.3234275841      -17.3879963352  W2        5656            0.0000000000
     16967      5656  TIP3      H1            -25.5459805720       26.1008175841      -18.3179963352  W2        5656            0.0000000000
     16968      5656  TIP3      H2            -24.7388505720       26.7221375841      -17.1980063352  W2        5656            0.0000000000
     16969      5657  TIP3      OH2           -30.0153105720       20.1992475841      -16.7176663352  W2        5657            0.0000000000
     16970      5657  TIP3      H1            -30.2688305720       20.2184075841      -15.7948563352  W2        5657            0.0000000000
     16971      5657  TIP3      H2            -30.2721005720       19.3277875841      -17.0190463352  W2        5657            0.0000000000
     16972      5658  TIP3      OH2           -34.2488105720       22.9503175841       -6.2824263352  W2        5658            0.0000000000
     16973      5658  TIP3      H1            -34.8906005720       22.9100475841       -5.5734163352  W2        5658            0.0000000000
     16974      5658  TIP3      H2            -34.2116105720       23.8767875841       -6.5201263352  W2        5658            0.0000000000
     16975      5659  TIP3      OH2           -34.2519005720       23.1713275841      -11.3704263352  W2        5659            0.0000000000
     16976      5659  TIP3      H1            -35.1446105720       22.8309375841      -11.4290463352  W2        5659            0.0000000000
     16977      5659  TIP3      H2            -33.8012405720       22.7944175841      -12.1261063352  W2        5659            0.0000000000
     16978      5660  TIP3      OH2           -28.7163505720       23.5873575841      -12.5533463352  W2        5660            0.0000000000
     16979      5660  TIP3      H1            -29.1253205720       24.4022175841      -12.8448663352  W2        5660            0.0000000000
     16980      5660  TIP3      H2            -27.9957305720       23.4473675841      -13.1676363352  W2        5660            0.0000000000
     16981      5661  TIP3      OH2           -29.6141905720       23.7629975841       -1.0652763352  W2        5661            0.0000000000
     16982      5661  TIP3      H1            -30.1768105720       23.0581575841       -0.7444963352  W2        5661            0.0000000000
     16983      5661  TIP3      H2            -28.7878505720       23.6421875841       -0.5975163352  W2        5661            0.0000000000
     16984      5662  TIP3      OH2           -27.7115805720       23.0333975841       -9.7393763352  W2        5662            0.0000000000
     16985      5662  TIP3      H1            -27.9071305720       23.6390775841      -10.4543163352  W2        5662            0.0000000000
     16986      5662  TIP3      H2            -27.5303205720       22.1999175841      -10.1737463352  W2        5662            0.0000000000
     16987      5663  TIP3      OH2           -36.4987605720       23.2706675841       -4.4152263352  W2        5663            0.0000000000
     16988      5663  TIP3      H1            -36.5368205720       23.6708275841       -3.5465163352  W2        5663            0.0000000000
     16989      5663  TIP3      H2            -36.9896505720       22.4539075841       -4.3249363352  W2        5663            0.0000000000
     16990      5664  TIP3      OH2           -33.1330205720       20.6448975841      -17.6166263352  W2        5664            0.0000000000
     16991      5664  TIP3      H1            -33.5639505720       20.1999075841      -16.8868863352  W2        5664            0.0000000000
     16992      5664  TIP3      H2            -33.8511505720       21.0165275841      -18.1288763352  W2        5664            0.0000000000
     16993      5665  TIP3      OH2           -39.8906805720       20.3868475841      -10.5647563352  W2        5665            0.0000000000
     16994      5665  TIP3      H1            -39.2599105720       20.3580575841       -9.8453663352  W2        5665            0.0000000000
     16995      5665  TIP3      H2            -39.4412505720       19.9617175841      -11.2951663352  W2        5665            0.0000000000
     16996      5666  TIP3      OH2           -38.6164705720       21.1330475841      -15.1407163352  W2        5666            0.0000000000
     16997      5666  TIP3      H1            -38.1423005720       21.7240375841      -15.7256263352  W2        5666            0.0000000000
     16998      5666  TIP3      H2            -39.3338305720       21.6633375841      -14.7937063352  W2        5666            0.0000000000
     16999      5667  TIP3      OH2           -28.4476605720       24.6715275841       -5.0681363352  W2        5667            0.0000000000
     17000      5667  TIP3      H1            -28.1241805720       24.0404975841       -5.7110863352  W2        5667            0.0000000000
     17001      5667  TIP3      H2            -28.8877305720       24.1367475841       -4.4073963352  W2        5667            0.0000000000
     17002      5668  TIP3      OH2           -31.6703705720       20.5990775841      -10.2840163352  W2        5668            0.0000000000
     17003      5668  TIP3      H1            -32.5812605720       20.6557575841       -9.9954163352  W2        5668            0.0000000000
     17004      5668  TIP3      H2            -31.1650805720       20.5386275841       -9.4732963352  W2        5668            0.0000000000
     17005      5669  TIP3      OH2           -36.8420305720       22.2277075841      -11.4572563352  W2        5669            0.0000000000
     17006      5669  TIP3      H1            -37.7312305720       22.3272575841      -11.7972963352  W2        5669            0.0000000000
     17007      5669  TIP3      H2            -36.5455405720       21.3860075841      -11.8034663352  W2        5669            0.0000000000
     17008      5670  TIP3      OH2           -33.1888505720       22.2279675841      -13.8007963352  W2        5670            0.0000000000
     17009      5670  TIP3      H1            -32.2573005720       22.3569675841      -13.6224863352  W2        5670            0.0000000000
     17010      5670  TIP3      H2            -33.4038205720       22.8973975841      -14.4503263352  W2        5670            0.0000000000
     17011      5671  TIP3      OH2           -27.2651805720       19.8337075841       -7.0198363352  W2        5671            0.0000000000
     17012      5671  TIP3      H1            -27.9420205720       19.9650175841       -6.3558663352  W2        5671            0.0000000000
     17013      5671  TIP3      H2            -27.7506905720       19.6786575841       -7.8300663352  W2        5671            0.0000000000
     17014      5672  TIP3      OH2           -34.5148305720       23.4221875841      -16.2341863352  W2        5672            0.0000000000
     17015      5672  TIP3      H1            -35.0573205720       23.0425675841      -16.9254263352  W2        5672            0.0000000000
     17016      5672  TIP3      H2            -33.6813405720       23.6166575841      -16.6627763352  W2        5672            0.0000000000
     17017      5673  TIP3      OH2           -23.9776705720       35.5052475841       -0.7430763352  W2        5673            0.0000000000
     17018      5673  TIP3      H1            -23.7778005720       35.9294375841       -1.5775463352  W2        5673            0.0000000000
     17019      5673  TIP3      H2            -23.3223005720       35.8490675841       -0.1360363352  W2        5673            0.0000000000
     17020      5674  TIP3      OH2           -36.3796905720       27.9793775841       -1.1350263352  W2        5674            0.0000000000
     17021      5674  TIP3      H1            -35.6474505720       28.2339675841       -0.5735763352  W2        5674            0.0000000000
     17022      5674  TIP3      H2            -37.1598205720       28.1839175841       -0.6194863352  W2        5674            0.0000000000
     17023      5675  TIP3      OH2           -30.3504005720       23.3863775841       -8.3970563352  W2        5675            0.0000000000
     17024      5675  TIP3      H1            -29.7860605720       22.8400375841       -8.9440963352  W2        5675            0.0000000000
     17025      5675  TIP3      H2            -30.4980605720       22.8645675841       -7.6082963352  W2        5675            0.0000000000
     17026      5676  TIP3      OH2           -35.3484305720       19.5229875841      -11.9785763352  W2        5676            0.0000000000
     17027      5676  TIP3      H1            -35.6654805720       18.6205175841      -12.0140363352  W2        5676            0.0000000000
     17028      5676  TIP3      H2            -34.5670205720       19.5247275841      -12.5314163352  W2        5676            0.0000000000
     17029      5677  TIP3      OH2           -31.7238105720       21.7749875841       -5.9830163352  W2        5677            0.0000000000
     17030      5677  TIP3      H1            -32.5592805720       22.2289375841       -5.8727763352  W2        5677            0.0000000000
     17031      5677  TIP3      H2            -31.1997505720       22.0508375841       -5.2310263352  W2        5677            0.0000000000
     17032      5678  TIP3      OH2           -31.1795505720       27.9877575841      -14.2983763352  W2        5678            0.0000000000
     17033      5678  TIP3      H1            -31.9244505720       27.4802875841      -14.6205863352  W2        5678            0.0000000000
     17034      5678  TIP3      H2            -31.3138305720       28.0365575841      -13.3518963352  W2        5678            0.0000000000
     17035      5679  TIP3      OH2           -24.0296605720       27.1205775841       -5.5116163352  W2        5679            0.0000000000
     17036      5679  TIP3      H1            -23.3877805720       27.5772075841       -6.0553963352  W2        5679            0.0000000000
     17037      5679  TIP3      H2            -24.8599705720       27.2338175841       -5.9742063352  W2        5679            0.0000000000
     17038      5680  TIP3      OH2           -27.2818705720       20.8017475841      -16.0991163352  W2        5680            0.0000000000
     17039      5680  TIP3      H1            -28.2204505720       20.9133075841      -16.2502363352  W2        5680            0.0000000000
     17040      5680  TIP3      H2            -26.9846605720       21.6584375841      -15.7925463352  W2        5680            0.0000000000
     17041      5681  TIP3      OH2           -29.6603405720       28.1720875841       -3.0614663352  W2        5681            0.0000000000
     17042      5681  TIP3      H1            -30.0057305720       27.7903275841       -2.2545063352  W2        5681            0.0000000000
     17043      5681  TIP3      H2            -29.8603305720       29.1054475841       -2.9901763352  W2        5681            0.0000000000
     17044      5682  TIP3      OH2           -26.5635205720       22.6690175841      -14.4383763352  W2        5682            0.0000000000
     17045      5682  TIP3      H1            -25.6716205720       22.5315175841      -14.1192563352  W2        5682            0.0000000000
     17046      5682  TIP3      H2            -26.5071605720       23.4596275841      -14.9750263352  W2        5682            0.0000000000
     17047      5683  TIP3      OH2           -36.0547205720       27.2827575841       -8.5285863352  W2        5683            0.0000000000
     17048      5683  TIP3      H1            -35.3100005720       27.2803275841       -9.1299363352  W2        5683            0.0000000000
     17049      5683  TIP3      H2            -35.9770605720       26.4591375841       -8.0470763352  W2        5683            0.0000000000
     17050      5684  TIP3      OH2           -29.0541405720       29.4461875841      -15.2729163352  W2        5684            0.0000000000
     17051      5684  TIP3      H1            -29.3493005720       30.2729775841      -14.8914363352  W2        5684            0.0000000000
     17052      5684  TIP3      H2            -29.7571405720       28.8268775841      -15.0767763352  W2        5684            0.0000000000
     17053      5685  TIP3      OH2           -39.0467505720       25.7434475841       -3.2137363352  W2        5685            0.0000000000
     17054      5685  TIP3      H1            -38.8238905720       25.3254075841       -2.3819863352  W2        5685            0.0000000000
     17055      5685  TIP3      H2            -39.6487405720       25.1309475841       -3.6364563352  W2        5685            0.0000000000
     17056      5686  TIP3      OH2           -32.0302605720       25.2604375841       -1.0007663352  W2        5686            0.0000000000
     17057      5686  TIP3      H1            -32.3261805720       25.0947375841       -1.8958563352  W2        5686            0.0000000000
     17058      5686  TIP3      H2            -31.0987405720       25.0404675841       -1.0113763352  W2        5686            0.0000000000
     17059      5687  TIP3      OH2           -27.4099805720       30.6336375841       -3.1109663352  W2        5687            0.0000000000
     17060      5687  TIP3      H1            -28.3105505720       30.8168975841       -3.3785763352  W2        5687            0.0000000000
     17061      5687  TIP3      H2            -27.3758705720       30.8925675841       -2.1900863352  W2        5687            0.0000000000
     17062      5688  TIP3      OH2           -21.6786505720       22.8784275841      -14.7437063352  W2        5688            0.0000000000
     17063      5688  TIP3      H1            -22.2330205720       22.4822275841      -15.4159563352  W2        5688            0.0000000000
     17064      5688  TIP3      H2            -21.5782905720       23.7889475841      -15.0213763352  W2        5688            0.0000000000
     17065      5689  TIP3      OH2           -21.7154505720       28.6785975841       -1.9065563352  W2        5689            0.0000000000
     17066      5689  TIP3      H1            -22.5666005720       28.9169775841       -2.2739163352  W2        5689            0.0000000000
     17067      5689  TIP3      H2            -21.1251105720       28.6619175841       -2.6598463352  W2        5689            0.0000000000
     17068      5690  TIP3      OH2           -23.3834805720       31.6644675841      -14.2784963352  W2        5690            0.0000000000
     17069      5690  TIP3      H1            -23.7563705720       30.8388475841      -13.9694363352  W2        5690            0.0000000000
     17070      5690  TIP3      H2            -23.1061305720       31.4814075841      -15.1761563352  W2        5690            0.0000000000
     17071      5691  TIP3      OH2           -26.2230905720       26.4724175841       -7.2573063352  W2        5691            0.0000000000
     17072      5691  TIP3      H1            -27.1514005720       26.2406075841       -7.2843763352  W2        5691            0.0000000000
     17073      5691  TIP3      H2            -25.7719805720       25.6953975841       -7.5874263352  W2        5691            0.0000000000
     17074      5692  TIP3      OH2           -33.6797805720       30.8005775841      -11.1244363352  W2        5692            0.0000000000
     17075      5692  TIP3      H1            -33.1525605720       31.5740175841      -11.3245563352  W2        5692            0.0000000000
     17076      5692  TIP3      H2            -34.5599305720       31.0254975841      -11.4260363352  W2        5692            0.0000000000
     17077      5693  TIP3      OH2           -37.9250105720       25.6629875841      -16.5371963352  W2        5693            0.0000000000
     17078      5693  TIP3      H1            -37.3090205720       26.2897075841      -16.1577163352  W2        5693            0.0000000000
     17079      5693  TIP3      H2            -38.7867505720       25.9789675841      -16.2655463352  W2        5693            0.0000000000
     17080      5694  TIP3      OH2           -32.2525505720       28.4635675841      -11.5480063352  W2        5694            0.0000000000
     17081      5694  TIP3      H1            -32.4935505720       29.3890075841      -11.5064763352  W2        5694            0.0000000000
     17082      5694  TIP3      H2            -32.9931905720       28.0046975841      -11.1516163352  W2        5694            0.0000000000
     17083      5695  TIP3      OH2           -31.7378905720       32.6129275841       -5.2328963352  W2        5695            0.0000000000
     17084      5695  TIP3      H1            -31.3754205720       33.4674875841       -5.4664563352  W2        5695            0.0000000000
     17085      5695  TIP3      H2            -31.2063705720       32.3210875841       -4.4922663352  W2        5695            0.0000000000
     17086      5696  TIP3      OH2           -33.5694705720       33.4853275841      -12.0027863352  W2        5696            0.0000000000
     17087      5696  TIP3      H1            -34.5194205720       33.5910675841      -11.9514563352  W2        5696            0.0000000000
     17088      5696  TIP3      H2            -33.2176605720       34.3060675841      -11.6580363352  W2        5696            0.0000000000
     17089      5697  TIP3      OH2           -28.1938105720       28.7119975841       -5.5323363352  W2        5697            0.0000000000
     17090      5697  TIP3      H1            -28.6196805720       28.4841675841       -4.7059363352  W2        5697            0.0000000000
     17091      5697  TIP3      H2            -27.6132305720       27.9731775841       -5.7148063352  W2        5697            0.0000000000
     17092      5698  TIP3      OH2           -25.9909205720       29.6410475841      -16.4584363352  W2        5698            0.0000000000
     17093      5698  TIP3      H1            -25.6376105720       29.2610275841      -15.6540863352  W2        5698            0.0000000000
     17094      5698  TIP3      H2            -26.9395705720       29.5475275841      -16.3715063352  W2        5698            0.0000000000
     17095      5699  TIP3      OH2           -25.5353905720       33.2639475841       -3.0628563352  W2        5699            0.0000000000
     17096      5699  TIP3      H1            -26.1370705720       32.7082375841       -3.5582263352  W2        5699            0.0000000000
     17097      5699  TIP3      H2            -25.2540205720       33.9309275841       -3.6891163352  W2        5699            0.0000000000
     17098      5700  TIP3      OH2           -21.4874805720       34.1202975841      -16.2574163352  W2        5700            0.0000000000
     17099      5700  TIP3      H1            -20.7436905720       34.7063475841      -16.3972563352  W2        5700            0.0000000000
     17100      5700  TIP3      H2            -22.1816705720       34.6888775841      -15.9241763352  W2        5700            0.0000000000
     17101      5701  TIP3      OH2           -37.4128005720       20.4967175841       -3.6555963352  W2        5701            0.0000000000
     17102      5701  TIP3      H1            -38.3055705720       20.8352575841       -3.7231963352  W2        5701            0.0000000000
     17103      5701  TIP3      H2            -37.5115205720       19.6413275841       -3.2375163352  W2        5701            0.0000000000
     17104      5702  TIP3      OH2           -25.1249905720       28.3132475841      -14.2316463352  W2        5702            0.0000000000
     17105      5702  TIP3      H1            -25.4022305720       27.5851775841      -13.6755363352  W2        5702            0.0000000000
     17106      5702  TIP3      H2            -24.1976905720       28.4324475841      -14.0263863352  W2        5702            0.0000000000
     17107      5703  TIP3      OH2           -37.7616005720       32.3011575841       -5.2206563352  W2        5703            0.0000000000
     17108      5703  TIP3      H1            -37.5445705720       31.3693975841       -5.2516863352  W2        5703            0.0000000000
     17109      5703  TIP3      H2            -37.5152505720       32.5756575841       -4.3373763352  W2        5703            0.0000000000
     17110      5704  TIP3      OH2           -31.9001405720       30.7526575841      -18.0114363352  W2        5704            0.0000000000
     17111      5704  TIP3      H1            -31.6611605720       30.0044675841      -18.5585463352  W2        5704            0.0000000000
     17112      5704  TIP3      H2            -32.1690105720       30.3648275841      -17.1786563352  W2        5704            0.0000000000
     17113      5705  TIP3      OH2           -32.9630805720       30.3230375841      -15.5551763352  W2        5705            0.0000000000
     17114      5705  TIP3      H1            -32.8162805720       29.8030175841      -14.7650863352  W2        5705            0.0000000000
     17115      5705  TIP3      H2            -32.9659105720       31.2297975841      -15.2485863352  W2        5705            0.0000000000
     17116      5706  TIP3      OH2           -36.5099705720       27.5753675841      -15.0446363352  W2        5706            0.0000000000
     17117      5706  TIP3      H1            -37.1960405720       27.9276175841      -14.4776663352  W2        5706            0.0000000000
     17118      5706  TIP3      H2            -35.9871805720       28.3383275841      -15.2912063352  W2        5706            0.0000000000
     17119      5707  TIP3      OH2           -28.6784605720       20.2377475841       -4.7657363352  W2        5707            0.0000000000
     17120      5707  TIP3      H1            -27.9796705720       20.3116175841       -4.1157663352  W2        5707            0.0000000000
     17121      5707  TIP3      H2            -29.0593205720       19.3732475841       -4.6114463352  W2        5707            0.0000000000
     17122      5708  TIP3      OH2           -27.8939705720       19.8899175841      -13.6685063352  W2        5708            0.0000000000
     17123      5708  TIP3      H1            -27.6741405720       20.3614575841      -14.4719663352  W2        5708            0.0000000000
     17124      5708  TIP3      H2            -27.3355705720       20.2841775841      -12.9984463352  W2        5708            0.0000000000
     17125      5709  TIP3      OH2           -30.2253605720       32.0203975841      -14.8057563352  W2        5709            0.0000000000
     17126      5709  TIP3      H1            -31.0417505720       32.5173675841      -14.7533263352  W2        5709            0.0000000000
     17127      5709  TIP3      H2            -29.6957305720       32.4957475841      -15.4458763352  W2        5709            0.0000000000
     17128      5710  TIP3      OH2           -30.6939805720       21.6177975841      -12.8336663352  W2        5710            0.0000000000
     17129      5710  TIP3      H1            -29.8817205720       22.1221175841      -12.7874963352  W2        5710            0.0000000000
     17130      5710  TIP3      H2            -30.9386805720       21.4727675841      -11.9197063352  W2        5710            0.0000000000
     17131      5711  TIP3      OH2           -30.1583405720       22.6040675841       -3.6490063352  W2        5711            0.0000000000
     17132      5711  TIP3      H1            -30.0393105720       23.1776075841       -2.8919663352  W2        5711            0.0000000000
     17133      5711  TIP3      H2            -29.5028805720       21.9160075841       -3.5342263352  W2        5711            0.0000000000
     17134      5712  TIP3      OH2           -29.8103105720       18.6990975841      -11.8955563352  W2        5712            0.0000000000
     17135      5712  TIP3      H1            -30.1569605720       19.3161575841      -11.2511263352  W2        5712            0.0000000000
     17136      5712  TIP3      H2            -29.1516205720       19.1996675841      -12.3770063352  W2        5712            0.0000000000
     17137      5713  TIP3      OH2           -32.8870505720       33.0641175841      -14.8240663352  W2        5713            0.0000000000
     17138      5713  TIP3      H1            -32.7261805720       33.8638675841      -15.3248063352  W2        5713            0.0000000000
     17139      5713  TIP3      H2            -33.0842705720       33.3707175841      -13.9390063352  W2        5713            0.0000000000
     17140      5714  TIP3      OH2           -34.1526105720       19.7620375841      -15.2083063352  W2        5714            0.0000000000
     17141      5714  TIP3      H1            -34.2361305720       20.6503475841      -14.8616663352  W2        5714            0.0000000000
     17142      5714  TIP3      H2            -33.2625805720       19.4967075841      -14.9766263352  W2        5714            0.0000000000
     17143      5715  TIP3      OH2           -23.9537605720       20.5110975841       -2.8140363352  W2        5715            0.0000000000
     17144      5715  TIP3      H1            -24.8701805720       20.7732675841       -2.9016663352  W2        5715            0.0000000000
     17145      5715  TIP3      H2            -23.6182605720       20.5079975841       -3.7105063352  W2        5715            0.0000000000
     17146      5716  TIP3      OH2           -25.3516605720       24.2611975841       -8.7183063352  W2        5716            0.0000000000
     17147      5716  TIP3      H1            -26.1492205720       23.8462175841       -9.0468063352  W2        5716            0.0000000000
     17148      5716  TIP3      H2            -24.9065505720       23.5705675841       -8.2272563352  W2        5716            0.0000000000
     17149      5717  TIP3      OH2           -35.8940805720       30.1892575841      -16.1478563352  W2        5717            0.0000000000
     17150      5717  TIP3      H1            -35.3019305720       30.8887375841      -15.8716163352  W2        5717            0.0000000000
     17151      5717  TIP3      H2            -35.4347805720       29.7562075841      -16.8673963352  W2        5717            0.0000000000
     17152      5718  TIP3      OH2           -37.5781605720       22.8535575841      -17.0319163352  W2        5718            0.0000000000
     17153      5718  TIP3      H1            -37.6229005720       23.7928675841      -16.8532163352  W2        5718            0.0000000000
     17154      5718  TIP3      H2            -38.4658405720       22.6180475841      -17.3017063352  W2        5718            0.0000000000
     17155      5719  TIP3      OH2           -24.2652005720       33.5174475841       -7.0959563352  W2        5719            0.0000000000
     17156      5719  TIP3      H1            -24.4207705720       34.1958875841       -7.7530263352  W2        5719            0.0000000000
     17157      5719  TIP3      H2            -23.3325605720       33.5893775841       -6.8928963352  W2        5719            0.0000000000
     17158      5720  TIP3      OH2           -36.7699605720       17.6352175841       -8.3588163352  W2        5720            0.0000000000
     17159      5720  TIP3      H1            -36.9989805720       17.6944675841       -9.2863163352  W2        5720            0.0000000000
     17160      5720  TIP3      H2            -37.2126205720       16.8437675841       -8.0524063352  W2        5720            0.0000000000
     17161      5721  TIP3      OH2           -37.8396305720       31.5759275841      -12.1982363352  W2        5721            0.0000000000
     17162      5721  TIP3      H1            -38.6717705720       32.0481975841      -12.1710963352  W2        5721            0.0000000000
     17163      5721  TIP3      H2            -37.2938005720       32.0856875841      -12.7969263352  W2        5721            0.0000000000
     17164      5722  TIP3      OH2           -38.5512605720       34.1882975841       -0.8684363352  W2        5722            0.0000000000
     17165      5722  TIP3      H1            -38.0110405720       33.9716975841       -0.1085163352  W2        5722            0.0000000000
     17166      5722  TIP3      H2            -39.0324605720       33.3828975841       -1.0581863352  W2        5722            0.0000000000
     17167      5723  TIP3      OH2           -33.9539205720       33.1077375841        0.7519836648  W2        5723            0.0000000000
     17168      5723  TIP3      H1            -33.1862005720       32.6488175841        1.0929036648  W2        5723            0.0000000000
     17169      5723  TIP3      H2            -33.9753005720       32.8817175841       -0.1778963352  W2        5723            0.0000000000
     17170      5724  TIP3      OH2           -29.8619605720       32.6157975841      -17.8728363352  W2        5724            0.0000000000
     17171      5724  TIP3      H1            -30.5058605720       31.9846575841      -17.5514663352  W2        5724            0.0000000000
     17172      5724  TIP3      H2            -29.1001305720       32.0845975841      -18.1044863352  W2        5724            0.0000000000
     17173      5725  TIP3      OH2           -27.3770505720       31.4878475841       -0.5188663352  W2        5725            0.0000000000
     17174      5725  TIP3      H1            -27.7281005720       30.6311475841       -0.2758263352  W2        5725            0.0000000000
     17175      5725  TIP3      H2            -26.6507305720       31.6305175841        0.0880336648  W2        5725            0.0000000000
     17176      5726  TIP3      OH2           -25.2576705720       32.4327875841      -17.6390363352  W2        5726            0.0000000000
     17177      5726  TIP3      H1            -24.9746305720       31.6383075841      -17.1863463352  W2        5726            0.0000000000
     17178      5726  TIP3      H2            -24.5178805720       32.6658875841      -18.1999263352  W2        5726            0.0000000000
     17179      5727  TIP3      OH2           -38.6443105720       27.9987075841        0.0859936648  W2        5727            0.0000000000
     17180      5727  TIP3      H1            -38.5002605720       27.0967775841       -0.2003363352  W2        5727            0.0000000000
     17181      5727  TIP3      H2            -39.4165705720       28.2849175841       -0.4017763352  W2        5727            0.0000000000
     17182      5728  TIP3      OH2           -34.3029405720       28.3422775841      -17.7815463352  W2        5728            0.0000000000
     17183      5728  TIP3      H1            -34.2385305720       27.5482375841      -17.2509063352  W2        5728            0.0000000000
     17184      5728  TIP3      H2            -33.6500205720       28.2235575841      -18.4713463352  W2        5728            0.0000000000
     17185      5729  TIP3      OH2           -31.9887005720       27.9685175841       -0.4813663352  W2        5729            0.0000000000
     17186      5729  TIP3      H1            -32.3173205720       28.2393275841       -1.3386263352  W2        5729            0.0000000000
     17187      5729  TIP3      H2            -31.8368805720       27.0274975841       -0.5688663352  W2        5729            0.0000000000
     17188      5730  TIP3      OH2           -28.9506005720       29.3894475841      -18.0457463352  W2        5730            0.0000000000
     17189      5730  TIP3      H1            -29.2191905720       29.5696575841      -17.1448563352  W2        5730            0.0000000000
     17190      5730  TIP3      H2            -29.1570405720       28.4640675841      -18.1771663352  W2        5730            0.0000000000
     17191      5731  TIP3      OH2           -26.2541805720       27.8842475841       -3.0981363352  W2        5731            0.0000000000
     17192      5731  TIP3      H1            -25.5087005720       28.4726175841       -3.2177363352  W2        5731            0.0000000000
     17193      5731  TIP3      H2            -27.0115005720       28.4662175841       -3.0348263352  W2        5731            0.0000000000
     17194      5732  TIP3      OH2           -37.8116605720       25.1990375841       -0.4940763352  W2        5732            0.0000000000
     17195      5732  TIP3      H1            -37.4035405720       24.3416975841       -0.6150163352  W2        5732            0.0000000000
     17196      5732  TIP3      H2            -38.0719005720       25.2131675841        0.4269536648  W2        5732            0.0000000000
     17197      5733  TIP3      OH2           -33.1535605720       26.3148975841      -15.4757463352  W2        5733            0.0000000000
     17198      5733  TIP3      H1            -33.6133605720       25.8307275841      -14.7898963352  W2        5733            0.0000000000
     17199      5733  TIP3      H2            -32.8986905720       25.6464375841      -16.1116963352  W2        5733            0.0000000000
     17200      5734  TIP3      OH2           -33.8646305720       24.2076075841       -3.1197863352  W2        5734            0.0000000000
     17201      5734  TIP3      H1            -34.4830205720       24.8822675841       -2.8393163352  W2        5734            0.0000000000
     17202      5734  TIP3      H2            -33.5205105720       24.5289975841       -3.9531663352  W2        5734            0.0000000000
     17203      5735  TIP3      OH2           -32.0825205720       24.5580775841      -17.2134263352  W2        5735            0.0000000000
     17204      5735  TIP3      H1            -32.2630205720       24.4031975841      -18.1405963352  W2        5735            0.0000000000
     17205      5735  TIP3      H2            -31.1324705720       24.6659475841      -17.1686363352  W2        5735            0.0000000000
     17206      5736  TIP3      OH2           -28.8448105720       26.6791375841        0.1576936648  W2        5736            0.0000000000
     17207      5736  TIP3      H1            -27.8916905720       26.7630475841        0.1302936648  W2        5736            0.0000000000
     17208      5736  TIP3      H2            -29.0053505720       25.9673175841        0.7771836648  W2        5736            0.0000000000
     17209      5737  TIP3      OH2           -22.6926905720       26.9124975841      -17.7676163352  W2        5737            0.0000000000
     17210      5737  TIP3      H1            -22.9662105720       26.4880475841      -18.5807863352  W2        5737            0.0000000000
     17211      5737  TIP3      H2            -22.6532805720       27.8439475841      -17.9845763352  W2        5737            0.0000000000
     17212      5738  TIP3      OH2           -33.5252605720       21.5626875841       -2.0374763352  W2        5738            0.0000000000
     17213      5738  TIP3      H1            -33.3751705720       20.8338175841       -2.6395063352  W2        5738            0.0000000000
     17214      5738  TIP3      H2            -33.5230205720       22.3398575841       -2.5962563352  W2        5738            0.0000000000
     17215      5739  TIP3      OH2           -33.1126905720       19.9322675841       -4.5447363352  W2        5739            0.0000000000
     17216      5739  TIP3      H1            -32.5769405720       20.3839375841       -5.1968063352  W2        5739            0.0000000000
     17217      5739  TIP3      H2            -33.9647305720       19.8242475841       -4.9673263352  W2        5739            0.0000000000
     17218      5740  TIP3      OH2           -31.5308505720       25.3718875841       -4.3052163352  W2        5740            0.0000000000
     17219      5740  TIP3      H1            -30.7803705720       25.2156375841       -4.8784363352  W2        5740            0.0000000000
     17220      5740  TIP3      H2            -31.8700205720       26.2235475841       -4.5806663352  W2        5740            0.0000000000
     17221      5741  TIP3      OH2           -27.1152305720       23.1870675841        0.7233136648  W2        5741            0.0000000000
     17222      5741  TIP3      H1            -26.9231005720       22.2560075841        0.6117636648  W2        5741            0.0000000000
     17223      5741  TIP3      H2            -26.2576005720       23.6120175841        0.7128536648  W2        5741            0.0000000000
     17224      5742  TIP3      OH2           -25.7985105720       25.9755875841       -1.1994163352  W2        5742            0.0000000000
     17225      5742  TIP3      H1            -26.0800105720       26.6850475841       -1.7770363352  W2        5742            0.0000000000
     17226      5742  TIP3      H2            -24.8560805720       25.9028875841       -1.3502963352  W2        5742            0.0000000000
     17227      5743  TIP3      OH2           -35.0466305720       22.7610375841       -0.1259163352  W2        5743            0.0000000000
     17228      5743  TIP3      H1            -35.8137305720       22.2285175841       -0.3361563352  W2        5743            0.0000000000
     17229      5743  TIP3      H2            -34.3677305720       22.4510775841       -0.7252863352  W2        5743            0.0000000000
     17230      5744  TIP3      OH2           -32.3071405720       17.3888375841       -4.1133763352  W2        5744            0.0000000000
     17231      5744  TIP3      H1            -32.4051805720       18.3351575841       -4.2187563352  W2        5744            0.0000000000
     17232      5744  TIP3      H2            -33.0495205720       17.0162175841       -4.5890263352  W2        5744            0.0000000000
     17233      5745  TIP3      OH2           -31.0430905720       21.7103775841       -0.5495363352  W2        5745            0.0000000000
     17234      5745  TIP3      H1            -31.2785505720       21.4910475841        0.3519536648  W2        5745            0.0000000000
     17235      5745  TIP3      H2            -31.8264005720       21.5034975841       -1.0592863352  W2        5745            0.0000000000
     17236      5746  TIP3      OH2           -28.3274305720       20.8377275841       -1.4741863352  W2        5746            0.0000000000
     17237      5746  TIP3      H1            -29.2748905720       20.8696975841       -1.3418563352  W2        5746            0.0000000000
     17238      5746  TIP3      H2            -28.0147605720       20.2124375841       -0.8203663352  W2        5746            0.0000000000
     17239      5747  TIP3      OH2           -26.6932805720       19.4718375841        0.5310036648  W2        5747            0.0000000000
     17240      5747  TIP3      H1            -26.7901005720       18.5195675841        0.5251936648  W2        5747            0.0000000000
     17241      5747  TIP3      H2            -27.0149705720       19.7405175841        1.3915536648  W2        5747            0.0000000000
     17242      5748  TIP3      OH2           -36.8663505720       20.6814175841       -0.4214463352  W2        5748            0.0000000000
     17243      5748  TIP3      H1            -36.6546105720       19.9750275841       -1.0316963352  W2        5748            0.0000000000
     17244      5748  TIP3      H2            -36.9776005720       20.2440175841        0.4226736648  W2        5748            0.0000000000
     17245      5749  TIP3      OH2           -32.0853305720       16.6825775841       -1.4420963352  W2        5749            0.0000000000
     17246      5749  TIP3      H1            -31.3734905720       16.0427975841       -1.4561863352  W2        5749            0.0000000000
     17247      5749  TIP3      H2            -32.1862905720       16.9494075841       -2.3557863352  W2        5749            0.0000000000
     17248      5750  TIP3      OH2           -31.7315805720       18.3654175841        0.6115336648  W2        5750            0.0000000000
     17249      5750  TIP3      H1            -31.8633605720       17.8897975841       -0.2086163352  W2        5750            0.0000000000
     17250      5750  TIP3      H2            -32.3308405720       19.1097775841        0.5562436648  W2        5750            0.0000000000
     17251      5751  TIP3      OH2           -32.1853505720       35.2484475841      -16.2120663352  W2        5751            0.0000000000
     17252      5751  TIP3      H1            -31.2522805720       35.4063175841      -16.0682263352  W2        5751            0.0000000000
     17253      5751  TIP3      H2            -32.4494705720       35.9237475841      -16.8369163352  W2        5751            0.0000000000
     17254      5752  TIP3      OH2           -38.6168605720       29.8848275841      -16.7292563352  W2        5752            0.0000000000
     17255      5752  TIP3      H1            -37.7029405720       29.9637175841      -16.4558663352  W2        5752            0.0000000000
     17256      5752  TIP3      H2            -38.6095505720       29.1977875841      -17.3956963352  W2        5752            0.0000000000
     17257      5753  TIP3      OH2           -39.9678005720       35.2776775841      -11.6518663352  W2        5753            0.0000000000
     17258      5753  TIP3      H1            -40.6150905720       34.8158475841      -12.1847463352  W2        5753            0.0000000000
     17259      5753  TIP3      H2            -39.6133405720       34.6060075841      -11.0692463352  W2        5753            0.0000000000
     17260      5754  TIP3      OH2           -39.0978805720       33.3583775841       -9.8472463352  W2        5754            0.0000000000
     17261      5754  TIP3      H1            -39.4322005720       32.4781075841       -9.6752263352  W2        5754            0.0000000000
     17262      5754  TIP3      H2            -38.8756405720       33.7038775841       -8.9826863352  W2        5754            0.0000000000
     17263      5755  TIP3      OH2           -21.5494005720       34.1680175841       -6.8667663352  W2        5755            0.0000000000
     17264      5755  TIP3      H1            -21.5707305720       34.3528575841       -5.9278263352  W2        5755            0.0000000000
     17265      5755  TIP3      H2            -20.8587805720       34.7364175841       -7.2076263352  W2        5755            0.0000000000
     17266      5756  TIP3      OH2           -21.9861105720       33.7351275841       -3.9448563352  W2        5756            0.0000000000
     17267      5756  TIP3      H1            -22.4732405720       32.9995375841       -4.3161163352  W2        5756            0.0000000000
     17268      5756  TIP3      H2            -21.4368405720       33.3415175841       -3.2669163352  W2        5756            0.0000000000
     17269      5757  TIP3      OH2           -23.5353805720       29.5249375841        0.6931736648  W2        5757            0.0000000000
     17270      5757  TIP3      H1            -24.4012705720       29.4199075841        1.0874036648  W2        5757            0.0000000000
     17271      5757  TIP3      H2            -23.1587905720       30.2832675841        1.1396436648  W2        5757            0.0000000000
     17272      5758  TIP3      OH2           -22.2344105720       27.7813075841      -13.7925763352  W2        5758            0.0000000000
     17273      5758  TIP3      H1            -21.3842705720       28.2023975841      -13.6654163352  W2        5758            0.0000000000
     17274      5758  TIP3      H2            -22.2289005720       27.0413175841      -13.1854363352  W2        5758            0.0000000000
     17275      5759  TIP3      OH2           -21.8398505720       25.8350475841      -11.9690063352  W2        5759            0.0000000000
     17276      5759  TIP3      H1            -22.5663905720       25.3553075841      -11.5712463352  W2        5759            0.0000000000
     17277      5759  TIP3      H2            -21.2585205720       26.0405175841      -11.2368463352  W2        5759            0.0000000000
     17278      5760  TIP3      OH2           -22.0807305720       28.6197975841       -7.0212463352  W2        5760            0.0000000000
     17279      5760  TIP3      H1            -21.2473105720       28.2417975841       -7.3018863352  W2        5760            0.0000000000
     17280      5760  TIP3      H2            -21.9687005720       29.5629175841       -7.1403363352  W2        5760            0.0000000000
     17281      5761  TIP3      OH2           -23.5945005720       31.4975475841       -4.7144063352  W2        5761            0.0000000000
     17282      5761  TIP3      H1            -24.2419705720       31.8226975841       -4.0888863352  W2        5761            0.0000000000
     17283      5761  TIP3      H2            -24.1121005720       31.0573175841       -5.3885763352  W2        5761            0.0000000000
     17284      5762  TIP3      OH2           -21.5715405720       25.7358975841      -15.5778763352  W2        5762            0.0000000000
     17285      5762  TIP3      H1            -22.0934305720       26.0923075841      -16.2967863352  W2        5762            0.0000000000
     17286      5762  TIP3      H2            -21.6046205720       26.4106775841      -14.8997863352  W2        5762            0.0000000000
     17287      5763  TIP3      OH2           -23.2226405720       22.9754575841      -17.0271663352  W2        5763            0.0000000000
     17288      5763  TIP3      H1            -23.1262005720       23.6421575841      -17.7071963352  W2        5763            0.0000000000
     17289      5763  TIP3      H2            -23.3626805720       22.1600875841      -17.5086163352  W2        5763            0.0000000000
     17290      5764  TIP3      OH2           -24.0531705720       24.3556975841      -11.4061363352  W2        5764            0.0000000000
     17291      5764  TIP3      H1            -24.2032905720       23.4105575841      -11.4263563352  W2        5764            0.0000000000
     17292      5764  TIP3      H2            -24.4067205720       24.6368375841      -10.5622263352  W2        5764            0.0000000000
     17293      5765  TIP3      OH2           -39.0179305720       26.4339175841       -7.3957563352  W2        5765            0.0000000000
     17294      5765  TIP3      H1            -38.8336405720       26.3520875841       -8.3314663352  W2        5765            0.0000000000
     17295      5765  TIP3      H2            -38.1686405720       26.3096175841       -6.9721163352  W2        5765            0.0000000000
     17296      5766  TIP3      OH2           -23.1968805720       26.3260275841       -1.7673063352  W2        5766            0.0000000000
     17297      5766  TIP3      H1            -22.6141505720       25.5912575841       -1.5755863352  W2        5766            0.0000000000
     17298      5766  TIP3      H2            -22.6329505720       27.0980575841       -1.7207263352  W2        5766            0.0000000000
     17299      5767  TIP3      OH2           -21.7001705720       24.2286075841       -1.0827663352  W2        5767            0.0000000000
     17300      5767  TIP3      H1            -22.5635005720       23.8498175841       -1.2482963352  W2        5767            0.0000000000
     17301      5767  TIP3      H2            -21.0958005720       23.4900875841       -1.1571863352  W2        5767            0.0000000000
     17302      5768  TIP3      OH2           -23.9752605720       20.3834375841      -17.9096163352  W2        5768            0.0000000000
     17303      5768  TIP3      H1            -23.3646805720       20.0121175841      -17.2727963352  W2        5768            0.0000000000
     17304      5768  TIP3      H2            -24.8121105720       19.9621275841      -17.7136163352  W2        5768            0.0000000000
     17305      5769  TIP3      OH2           -24.3426905720       21.9382775841      -12.9436263352  W2        5769            0.0000000000
     17306      5769  TIP3      H1            -24.0629805720       21.0313175841      -12.8194563352  W2        5769            0.0000000000
     17307      5769  TIP3      H2            -23.5835205720       22.3724275841      -13.3327063352  W2        5769            0.0000000000
     17308      5770  TIP3      OH2           -23.7308605720       22.5200175841       -7.5077363352  W2        5770            0.0000000000
     17309      5770  TIP3      H1            -22.7980605720       22.7320075841       -7.5421363352  W2        5770            0.0000000000
     17310      5770  TIP3      H2            -23.9661105720       22.6212275841       -6.5854363352  W2        5770            0.0000000000
     17311      5771  TIP3      OH2           -23.7016705720       23.2565475841       -4.7317963352  W2        5771            0.0000000000
     17312      5771  TIP3      H1            -24.5445405720       23.5245875841       -4.3658163352  W2        5771            0.0000000000
     17313      5771  TIP3      H2            -23.2592405720       24.0787375841       -4.9426863352  W2        5771            0.0000000000
     17314      5772  TIP3      OH2           -39.4204505720       21.7044175841       -1.2548763352  W2        5772            0.0000000000
     17315      5772  TIP3      H1            -38.5009605720       21.5822475841       -1.0185663352  W2        5772            0.0000000000
     17316      5772  TIP3      H2            -39.8700005720       20.9543875841       -0.8655263352  W2        5772            0.0000000000
     17317      5773  TIP3      OH2           -21.4185105720       17.2365675841        0.6217036648  W2        5773            0.0000000000
     17318      5773  TIP3      H1            -21.0688105720       16.5829175841        0.0161736648  W2        5773            0.0000000000
     17319      5773  TIP3      H2            -21.2715605720       18.0739775841        0.1819636648  W2        5773            0.0000000000
     17320      5774  TIP3      OH2           -23.7292105720       19.2012075841      -12.8954263352  W2        5774            0.0000000000
     17321      5774  TIP3      H1            -23.5467105720       18.7523575841      -12.0699263352  W2        5774            0.0000000000
     17322      5774  TIP3      H2            -24.3289205720       18.6166475841      -13.3589663352  W2        5774            0.0000000000
     17323      5775  TIP3      OH2           -38.1992005720       20.0165775841       -8.3635863352  W2        5775            0.0000000000
     17324      5775  TIP3      H1            -37.7540405720       19.2248275841       -8.0616163352  W2        5775            0.0000000000
     17325      5775  TIP3      H2            -37.7329005720       20.7330975841       -7.9330263352  W2        5775            0.0000000000
     17326      5776  TIP3      OH2           -39.8951705720       23.0158775841       -7.2945663352  W2        5776            0.0000000000
     17327      5776  TIP3      H1            -39.4031905720       22.7949275841       -8.0853663352  W2        5776            0.0000000000
     17328      5776  TIP3      H2            -39.5330805720       23.8562175841       -7.0136163352  W2        5776            0.0000000000
     17329      5777  TIP3      OH2           -21.8987905720       19.3460275841       -1.0291663352  W2        5777            0.0000000000
     17330      5777  TIP3      H1            -22.8162205720       19.6167375841       -1.0648163352  W2        5777            0.0000000000
     17331      5777  TIP3      H2            -21.7758505720       18.8108675841       -1.8131963352  W2        5777            0.0000000000
     17332      5778  TIP3      OH2           -21.8625905720       19.2690175841      -16.3673963352  W2        5778            0.0000000000
     17333      5778  TIP3      H1            -21.4503305720       18.5475875841      -16.8425963352  W2        5778            0.0000000000
     17334      5778  TIP3      H2            -21.1809405720       19.9384775841      -16.3089663352  W2        5778            0.0000000000
     17335      5779  TIP3      OH2           -39.5815205720       19.2737875841      -13.2403263352  W2        5779            0.0000000000
     17336      5779  TIP3      H1            -40.5066805720       19.4824475841      -13.3697763352  W2        5779            0.0000000000
     17337      5779  TIP3      H2            -39.1275305720       19.7578675841      -13.9300963352  W2        5779            0.0000000000
     17338      5780  TIP3      OH2           -24.8108005720       34.2579575841      -11.2945863352  W2        5780            0.0000000000
     17339      5780  TIP3      H1            -24.1585105720       33.9101675841      -11.9026763352  W2        5780            0.0000000000
     17340      5780  TIP3      H2            -24.3004205720       34.7462775841      -10.6486163352  W2        5780            0.0000000000
     17341      5781  TIP3      OH2           -39.6179805720       18.0116875841       -4.8960763352  W2        5781            0.0000000000
     17342      5781  TIP3      H1            -40.2829305720       17.7657175841       -4.2529863352  W2        5781            0.0000000000
     17343      5781  TIP3      H2            -40.0608505720       18.6337275841       -5.4732763352  W2        5781            0.0000000000
     17344      5782  TIP3      OH2           -37.4260505720       31.1870975841       -0.7514963352  W2        5782            0.0000000000
     17345      5782  TIP3      H1            -38.2468005720       31.3617475841       -1.2120263352  W2        5782            0.0000000000
     17346      5782  TIP3      H2            -37.6782705720       31.1135675841        0.1689436648  W2        5782            0.0000000000
     17347      5783  TIP3      OH2           -34.4717605720       32.1612175841       -4.4930963352  W2        5783            0.0000000000
     17348      5783  TIP3      H1            -34.8966505720       32.9710675841       -4.7756363352  W2        5783            0.0000000000
     17349      5783  TIP3      H2            -33.5674805720       32.2466275841       -4.7951163352  W2        5783            0.0000000000
     17350      5784  TIP3      OH2           -30.1606205720       33.5602175841       -1.5337263352  W2        5784            0.0000000000
     17351      5784  TIP3      H1            -29.9758705720       33.2268275841       -0.6556963352  W2        5784            0.0000000000
     17352      5784  TIP3      H2            -29.3141705720       33.8700775841       -1.8558063352  W2        5784            0.0000000000
     17353      5785  TIP3      OH2           -27.8155805720       34.8461075841       -2.2895863352  W2        5785            0.0000000000
     17354      5785  TIP3      H1            -27.1386905720       34.2133375841       -2.5296663352  W2        5785            0.0000000000
     17355      5785  TIP3      H2            -27.4937005720       35.2471575841       -1.4822563352  W2        5785            0.0000000000
     17356      5786  TIP3      OH2           -22.8982005720       17.4356575841       -3.2100863352  W2        5786            0.0000000000
     17357      5786  TIP3      H1            -23.7108505720       17.7606875841       -3.5976163352  W2        5786            0.0000000000
     17358      5786  TIP3      H2            -22.6653505720       16.6755075841       -3.7431763352  W2        5786            0.0000000000
     17359      5787  TIP3      OH2           -37.0700905720       35.4176075841       -4.4455663352  W2        5787            0.0000000000
     17360      5787  TIP3      H1            -37.7904505720       35.8577075841       -4.8967963352  W2        5787            0.0000000000
     17361      5787  TIP3      H2            -37.4356905720       35.1670775841       -3.5971663352  W2        5787            0.0000000000
     17362      5788  TIP3      OH2           -34.6028305720       35.0179975841       -5.4158463352  W2        5788            0.0000000000
     17363      5788  TIP3      H1            -35.4676105720       35.0898475841       -5.0118363352  W2        5788            0.0000000000
     17364      5788  TIP3      H2            -34.6579305720       35.5647275841       -6.1995963352  W2        5788            0.0000000000
     17365      5789  TIP3      OH2           -29.8922705720       34.9058875841       -6.2402463352  W2        5789            0.0000000000
     17366      5789  TIP3      H1            -30.3488705720       35.4348575841       -6.8944063352  W2        5789            0.0000000000
     17367      5789  TIP3      H2            -29.7294705720       35.5090275841       -5.5150163352  W2        5789            0.0000000000
     17368      5790  TIP3      OH2           -27.5646405720       33.7838475841       -5.2952163352  W2        5790            0.0000000000
     17369      5790  TIP3      H1            -28.4692705720       33.9488675841       -5.5610063352  W2        5790            0.0000000000
     17370      5790  TIP3      H2            -27.1357805720       34.6370675841       -5.3608763352  W2        5790            0.0000000000
     17371      5791  TIP3      OH2           -24.9604505720       35.3537575841       -5.0004363352  W2        5791            0.0000000000
     17372      5791  TIP3      H1            -25.1422505720       36.2696475841       -5.2109463352  W2        5791            0.0000000000
     17373      5791  TIP3      H2            -24.7836705720       34.9434675841       -5.8469763352  W2        5791            0.0000000000
     17374      5792  TIP3      OH2           -37.6552805720       34.0408575841       -7.5353863352  W2        5792            0.0000000000
     17375      5792  TIP3      H1            -37.6736805720       33.6153675841       -6.6781563352  W2        5792            0.0000000000
     17376      5792  TIP3      H2            -36.8504905720       33.7223575841       -7.9441663352  W2        5792            0.0000000000
     17377      5793  TIP3      OH2           -35.5139705720       32.7507275841       -8.8803963352  W2        5793            0.0000000000
     17378      5793  TIP3      H1            -35.7329005720       31.8344675841       -8.7107963352  W2        5793            0.0000000000
     17379      5793  TIP3      H2            -34.6897505720       32.8907675841       -8.4142563352  W2        5793            0.0000000000
     17380      5794  TIP3      OH2           -32.9767205720       33.2206575841       -8.0315963352  W2        5794            0.0000000000
     17381      5794  TIP3      H1            -32.7641505720       32.3325575841       -8.3185063352  W2        5794            0.0000000000
     17382      5794  TIP3      H2            -32.9122105720       33.1864275841       -7.0771963352  W2        5794            0.0000000000
     17383      5795  TIP3      OH2           -29.4683505720       18.8847175841       -8.8872663352  W2        5795            0.0000000000
     17384      5795  TIP3      H1            -30.1426705720       18.2552775841       -8.6316863352  W2        5795            0.0000000000
     17385      5795  TIP3      H2            -28.9044305720       18.4006075841       -9.4904763352  W2        5795            0.0000000000
     17386      5796  TIP3      OH2           -24.3256305720       16.9921175841       -8.7745563352  W2        5796            0.0000000000
     17387      5796  TIP3      H1            -23.7218705720       17.5396575841       -9.2764563352  W2        5796            0.0000000000
     17388      5796  TIP3      H2            -25.1954305720       17.3111575841       -9.0151463352  W2        5796            0.0000000000
     17389      5797  TIP3      OH2           -22.5985905720       18.1309875841      -10.4414663352  W2        5797            0.0000000000
     17390      5797  TIP3      H1            -21.9868405720       17.6165575841      -10.9681063352  W2        5797            0.0000000000
     17391      5797  TIP3      H2            -22.2162505720       19.0081975841      -10.4180263352  W2        5797            0.0000000000
     17392      5798  TIP3      OH2           -37.1416005720       17.5187475841      -11.0652763352  W2        5798            0.0000000000
     17393      5798  TIP3      H1            -37.9186205720       17.2842375841      -11.5726863352  W2        5798            0.0000000000
     17394      5798  TIP3      H2            -36.6112405720       16.7219575841      -11.0564763352  W2        5798            0.0000000000
     17395      5799  TIP3      OH2           -38.3052605720       17.3165575841      -15.2616663352  W2        5799            0.0000000000
     17396      5799  TIP3      H1            -37.8661905720       17.9276075841      -15.8533163352  W2        5799            0.0000000000
     17397      5799  TIP3      H2            -38.9390205720       17.8549675841      -14.7876663352  W2        5799            0.0000000000
     17398      5800  TIP3      OH2           -32.5623405720       17.4454575841      -11.2519663352  W2        5800            0.0000000000
     17399      5800  TIP3      H1            -31.6880005720       17.8338875841      -11.2815363352  W2        5800            0.0000000000
     17400      5800  TIP3      H2            -32.6982605720       17.2302375841      -10.3292463352  W2        5800            0.0000000000
     17401      5801  TIP3      OH2           -27.0055005720       17.4754375841       -9.6027963352  W2        5801            0.0000000000
     17402      5801  TIP3      H1            -26.9293405720       17.5705975841      -10.5521963352  W2        5801            0.0000000000
     17403      5801  TIP3      H2            -27.2805805720       16.5677275841       -9.4738863352  W2        5801            0.0000000000
     17404      5802  TIP3      OH2           -25.6522405720       17.5012175841      -13.9102963352  W2        5802            0.0000000000
     17405      5802  TIP3      H1            -26.3551305720       18.1161375841      -14.1201563352  W2        5802            0.0000000000
     17406      5802  TIP3      H2            -26.0971005720       16.6638875841      -13.7792063352  W2        5802            0.0000000000
     17407      5803  TIP3      OH2           -38.4043105720       33.2647775841      -14.3641563352  W2        5803            0.0000000000
     17408      5803  TIP3      H1            -39.0893205720       33.2266675841      -15.0316463352  W2        5803            0.0000000000
     17409      5803  TIP3      H2            -38.4005905720       34.1775375841      -14.0759463352  W2        5803            0.0000000000
     17410      5804  TIP3      OH2           -36.4443505720       19.2327075841      -16.8192563352  W2        5804            0.0000000000
     17411      5804  TIP3      H1            -35.9530105720       18.6029475841      -17.3467063352  W2        5804            0.0000000000
     17412      5804  TIP3      H2            -35.8207205720       19.5286475841      -16.1561363352  W2        5804            0.0000000000
     17413      5805  TIP3      OH2           -31.4183405720       19.5258575841      -14.3622063352  W2        5805            0.0000000000
     17414      5805  TIP3      H1            -31.2402105720       18.8791775841      -13.6793463352  W2        5805            0.0000000000
     17415      5805  TIP3      H2            -31.4717205720       20.3596275841      -13.8950963352  W2        5805            0.0000000000
     17416      5806  TIP3      OH2           -29.5399605720       34.4742675841      -15.9665363352  W2        5806            0.0000000000
     17417      5806  TIP3      H1            -28.6739405720       34.8410075841      -16.1447163352  W2        5806            0.0000000000
     17418      5806  TIP3      H2            -29.7866805720       34.0350675841      -16.7804563352  W2        5806            0.0000000000
     17419      5807  TIP3      OH2           -22.8310005720       34.0372975841      -13.2874263352  W2        5807            0.0000000000
     17420      5807  TIP3      H1            -23.0252905720       33.2895075841      -13.8524663352  W2        5807            0.0000000000
     17421      5807  TIP3      H2            -22.8699905720       34.7953075841      -13.8706363352  W2        5807            0.0000000000
     17422      5808  TIP3      OH2           -37.1838005720       18.0329375841       -1.5476563352  W2        5808            0.0000000000
     17423      5808  TIP3      H1            -37.5499805720       17.2671975841       -1.1051863352  W2        5808            0.0000000000
     17424      5808  TIP3      H2            -36.2709505720       18.0619575841       -1.2611463352  W2        5808            0.0000000000
     17425      5809  TIP3      OH2           -35.2107205720       17.3833775841       -0.0119463352  W2        5809            0.0000000000
     17426      5809  TIP3      H1            -34.3123605720       17.1093975841       -0.1966063352  W2        5809            0.0000000000
     17427      5809  TIP3      H2            -35.5974105720       16.6409775841        0.4523136648  W2        5809            0.0000000000
     17428      5810  TIP3      OH2           -36.5861905720       34.1848575841      -17.3389463352  W2        5810            0.0000000000
     17429      5810  TIP3      H1            -36.8537305720       34.4711475841      -16.4656363352  W2        5810            0.0000000000
     17430      5810  TIP3      H2            -35.8149305720       33.6387775841      -17.1866963352  W2        5810            0.0000000000
     17431      5811  TIP3      OH2           -26.7894905720       16.7159075841        0.1703336648  W2        5811            0.0000000000
     17432      5811  TIP3      H1            -26.7127705720       16.2899775841        1.0241036648  W2        5811            0.0000000000
     17433      5811  TIP3      H2            -25.8958305720       16.7293775841       -0.1723163352  W2        5811            0.0000000000
     17434      5812  TIP3      OH2           -23.6133805720       32.7885375841       -1.1372463352  W2        5812            0.0000000000
     17435      5812  TIP3      H1            -24.3951905720       32.6023375841       -1.6571863352  W2        5812            0.0000000000
     17436      5812  TIP3      H2            -23.6853905720       33.7179675841       -0.9199963352  W2        5812            0.0000000000
     17437      5813  TIP3      OH2            -9.2073405720       26.6749775841      -11.1065263352  W2        5813            0.0000000000
     17438      5813  TIP3      H1             -9.1182305720       27.6187975841      -11.2388163352  W2        5813            0.0000000000
     17439      5813  TIP3      H2             -9.8455805720       26.3996175841      -11.7645863352  W2        5813            0.0000000000
     17440      5814  TIP3      OH2           -10.2742105720       25.9300475841       -7.6877063352  W2        5814            0.0000000000
     17441      5814  TIP3      H1            -10.3124605720       25.2836775841       -6.9827463352  W2        5814            0.0000000000
     17442      5814  TIP3      H2            -10.5965605720       25.4634875841       -8.4588363352  W2        5814            0.0000000000
     17443      5815  TIP3      OH2           -17.9057105720       25.5442575841       -6.0947163352  W2        5815            0.0000000000
     17444      5815  TIP3      H1            -17.8645005720       24.9185875841       -5.3714763352  W2        5815            0.0000000000
     17445      5815  TIP3      H2            -17.2029405720       26.1681175841       -5.9126763352  W2        5815            0.0000000000
     17446      5816  TIP3      OH2            -6.5681905720       28.8690875841       -9.3861963352  W2        5816            0.0000000000
     17447      5816  TIP3      H1             -7.0089205720       28.1486875841       -8.9356363352  W2        5816            0.0000000000
     17448      5816  TIP3      H2             -6.5812205720       29.5898075841       -8.7564263352  W2        5816            0.0000000000
     17449      5817  TIP3      OH2           -16.9824005720       29.9941475841       -7.5598063352  W2        5817            0.0000000000
     17450      5817  TIP3      H1            -17.3518805720       29.1921975841       -7.9293763352  W2        5817            0.0000000000
     17451      5817  TIP3      H2            -16.0412905720       29.8256375841       -7.5134663352  W2        5817            0.0000000000
     17452      5818  TIP3      OH2           -20.3723505720       23.6544075841      -12.1669263352  W2        5818            0.0000000000
     17453      5818  TIP3      H1            -20.8200105720       24.5002775841      -12.1852763352  W2        5818            0.0000000000
     17454      5818  TIP3      H2            -20.9332305720       23.0748275841      -12.6824163352  W2        5818            0.0000000000
     17455      5819  TIP3      OH2           -19.6617405720       25.8163675841      -10.0411263352  W2        5819            0.0000000000
     17456      5819  TIP3      H1            -19.4483905720       25.0465275841       -9.5138263352  W2        5819            0.0000000000
     17457      5819  TIP3      H2            -18.9239805720       25.9060375841      -10.6443663352  W2        5819            0.0000000000
     17458      5820  TIP3      OH2            -9.4566405720       33.9732575841       -9.1741563352  W2        5820            0.0000000000
     17459      5820  TIP3      H1             -8.8370005720       33.2967275841       -9.4472363352  W2        5820            0.0000000000
     17460      5820  TIP3      H2             -9.6649005720       33.7553375841       -8.2656663352  W2        5820            0.0000000000
     17461      5821  TIP3      OH2           -11.8847705720       28.3621875841       -7.2816063352  W2        5821            0.0000000000
     17462      5821  TIP3      H1            -11.5809805720       27.6763275841       -7.8761963352  W2        5821            0.0000000000
     17463      5821  TIP3      H2            -11.1633705720       28.4810575841       -6.6638063352  W2        5821            0.0000000000
     17464      5822  TIP3      OH2            -3.2217905720       19.9637175841       -6.4209863352  W2        5822            0.0000000000
     17465      5822  TIP3      H1             -3.1725705720       20.5738375841       -5.6850763352  W2        5822            0.0000000000
     17466      5822  TIP3      H2             -2.7962805720       20.4248075841       -7.1438763352  W2        5822            0.0000000000
     17467      5823  TIP3      OH2            -8.7440705720       22.7564275841       -6.9541263352  W2        5823            0.0000000000
     17468      5823  TIP3      H1             -8.6014805720       21.8101275841       -6.9339663352  W2        5823            0.0000000000
     17469      5823  TIP3      H2             -8.8501705720       22.9634075841       -7.8826363352  W2        5823            0.0000000000
     17470      5824  TIP3      OH2           -15.5892405720       20.8580675841       -9.6816463352  W2        5824            0.0000000000
     17471      5824  TIP3      H1            -15.5461305720       21.7179175841      -10.1000163352  W2        5824            0.0000000000
     17472      5824  TIP3      H2            -16.0468305720       20.3055375841      -10.3153263352  W2        5824            0.0000000000
     17473      5825  TIP3      OH2            -7.8669705720       20.9886275841      -11.2808163352  W2        5825            0.0000000000
     17474      5825  TIP3      H1             -7.2205405720       20.6599475841      -10.6560563352  W2        5825            0.0000000000
     17475      5825  TIP3      H2             -7.3570305720       21.5065275841      -11.9036763352  W2        5825            0.0000000000
     17476      5826  TIP3      OH2           -18.9690905720       23.2546475841       -8.9195063352  W2        5826            0.0000000000
     17477      5826  TIP3      H1            -18.3154305720       22.7048175841       -8.4874963352  W2        5826            0.0000000000
     17478      5826  TIP3      H2            -18.9451605720       22.9805475841       -9.8363063352  W2        5826            0.0000000000
     17479      5827  TIP3      OH2           -13.8126405720       24.8047775841       -9.7043563352  W2        5827            0.0000000000
     17480      5827  TIP3      H1            -13.1965405720       24.2783175841       -9.1949563352  W2        5827            0.0000000000
     17481      5827  TIP3      H2            -14.3987605720       24.1646475841      -10.1079963352  W2        5827            0.0000000000
     17482      5828  TIP3      OH2            -2.8303305720       21.4416375841       -4.1850063352  W2        5828            0.0000000000
     17483      5828  TIP3      H1             -3.5188705720       22.0997075841       -4.2803463352  W2        5828            0.0000000000
     17484      5828  TIP3      H2             -2.8148705720       21.2444275841       -3.2484663352  W2        5828            0.0000000000
     17485      5829  TIP3      OH2           -16.7790505720       19.7759075841       -5.6075663352  W2        5829            0.0000000000
     17486      5829  TIP3      H1            -16.9978805720       20.3059675841       -6.3739663352  W2        5829            0.0000000000
     17487      5829  TIP3      H2            -17.4469605720       20.0024575841       -4.9604263352  W2        5829            0.0000000000
     17488      5830  TIP3      OH2            -9.4100705720       29.2760175841      -12.0636563352  W2        5830            0.0000000000
     17489      5830  TIP3      H1             -9.7055605720       28.9532475841      -12.9149663352  W2        5830            0.0000000000
     17490      5830  TIP3      H2             -9.7342905720       30.1756875841      -12.0223963352  W2        5830            0.0000000000
     17491      5831  TIP3      OH2           -14.2099105720       27.4514775841       -5.3201963352  W2        5831            0.0000000000
     17492      5831  TIP3      H1            -14.9500005720       28.0496275841       -5.2166763352  W2        5831            0.0000000000
     17493      5831  TIP3      H2            -13.4959605720       28.0054375841       -5.6358363352  W2        5831            0.0000000000
     17494      5832  TIP3      OH2            -6.1031305720       20.2795575841       -9.3002263352  W2        5832            0.0000000000
     17495      5832  TIP3      H1             -6.3183305720       19.5138975841       -8.7676263352  W2        5832            0.0000000000
     17496      5832  TIP3      H2             -5.4473905720       20.7520175841       -8.7873763352  W2        5832            0.0000000000
     17497      5833  TIP3      OH2           -17.1853205720       21.6680875841       -7.6553463352  W2        5833            0.0000000000
     17498      5833  TIP3      H1            -16.5716905720       22.3008475841       -7.2821063352  W2        5833            0.0000000000
     17499      5833  TIP3      H2            -16.6732505720       21.1955875841       -8.3116563352  W2        5833            0.0000000000
     17500      5834  TIP3      OH2           -15.8024805720       29.4157775841       -4.5330463352  W2        5834            0.0000000000
     17501      5834  TIP3      H1            -15.8077205720       30.2951275841       -4.9111163352  W2        5834            0.0000000000
     17502      5834  TIP3      H2            -16.6560705720       29.3321875841       -4.1080563352  W2        5834            0.0000000000
     17503      5835  TIP3      OH2           -19.6813905720       29.0865675841      -13.7511163352  W2        5835            0.0000000000
     17504      5835  TIP3      H1            -19.9533005720       29.3156675841      -14.6398263352  W2        5835            0.0000000000
     17505      5835  TIP3      H2            -19.6358205720       29.9244475841      -13.2905863352  W2        5835            0.0000000000
     17506      5836  TIP3      OH2            -6.0564205720       30.7081575841       -7.0382663352  W2        5836            0.0000000000
     17507      5836  TIP3      H1             -6.9980505720       30.7665475841       -6.8765763352  W2        5836            0.0000000000
     17508      5836  TIP3      H2             -5.7798105720       31.6142075841       -7.1752963352  W2        5836            0.0000000000
     17509      5837  TIP3      OH2            -5.7557205720       18.9946875841       -5.6208763352  W2        5837            0.0000000000
     17510      5837  TIP3      H1             -6.4918005720       19.6053975841       -5.6587463352  W2        5837            0.0000000000
     17511      5837  TIP3      H2             -5.0723205720       19.4095875841       -6.1472363352  W2        5837            0.0000000000
     17512      5838  TIP3      OH2           -12.7525805720       17.0814175841       -8.1550763352  W2        5838            0.0000000000
     17513      5838  TIP3      H1            -12.8701605720       16.1330175841       -8.2092463352  W2        5838            0.0000000000
     17514      5838  TIP3      H2            -13.6075705720       17.4140275841       -7.8819663352  W2        5838            0.0000000000
     17515      5839  TIP3      OH2            -7.8043005720       32.4895075841      -10.4131063352  W2        5839            0.0000000000
     17516      5839  TIP3      H1             -7.3790705720       31.7822975841      -10.8981463352  W2        5839            0.0000000000
     17517      5839  TIP3      H2             -7.4873005720       33.2907775841      -10.8298863352  W2        5839            0.0000000000
     17518      5840  TIP3      OH2            -6.6446505720       30.3903575841      -11.9044463352  W2        5840            0.0000000000
     17519      5840  TIP3      H1             -6.9021705720       29.7003675841      -12.5158563352  W2        5840            0.0000000000
     17520      5840  TIP3      H2             -6.5735705720       29.9474775841      -11.0588563352  W2        5840            0.0000000000
     17521      5841  TIP3      OH2            -4.9586305720       28.9570275841       -3.4270963352  W2        5841            0.0000000000
     17522      5841  TIP3      H1             -4.8190005720       28.3652775841       -4.1663963352  W2        5841            0.0000000000
     17523      5841  TIP3      H2             -4.7913505720       29.8296175841       -3.7832163352  W2        5841            0.0000000000
     17524      5842  TIP3      OH2           -10.4860905720       25.9189775841      -13.6544963352  W2        5842            0.0000000000
     17525      5842  TIP3      H1            -11.1975405720       26.4539475841      -14.0064463352  W2        5842            0.0000000000
     17526      5842  TIP3      H2             -9.7951305720       25.9741875841      -14.3146063352  W2        5842            0.0000000000
     17527      5843  TIP3      OH2           -10.4321705720       24.3764075841      -16.6159963352  W2        5843            0.0000000000
     17528      5843  TIP3      H1             -9.7311805720       24.3990975841      -15.9645963352  W2        5843            0.0000000000
     17529      5843  TIP3      H2            -10.1298805720       23.7483775841      -17.2720663352  W2        5843            0.0000000000
     17530      5844  TIP3      OH2            -3.1167005720       25.2968275841       -5.3610563352  W2        5844            0.0000000000
     17531      5844  TIP3      H1             -3.7692905720       25.9913875841       -5.2719663352  W2        5844            0.0000000000
     17532      5844  TIP3      H2             -2.6516705720       25.5069175841       -6.1708963352  W2        5844            0.0000000000
     17533      5845  TIP3      OH2            -7.0803205720       26.1283075841      -12.7029063352  W2        5845            0.0000000000
     17534      5845  TIP3      H1             -7.8122205720       26.3566775841      -12.1298463352  W2        5845            0.0000000000
     17535      5845  TIP3      H2             -6.6331005720       25.4145775841      -12.2481563352  W2        5845            0.0000000000
     17536      5846  TIP3      OH2            -7.1829705720       24.3025675841       -3.6352063352  W2        5846            0.0000000000
     17537      5846  TIP3      H1             -7.1030605720       25.0660075841       -3.0633563352  W2        5846            0.0000000000
     17538      5846  TIP3      H2             -7.7842005720       24.5818075841       -4.3256963352  W2        5846            0.0000000000
     17539      5847  TIP3      OH2           -15.4349505720       26.7589275841      -10.8204063352  W2        5847            0.0000000000
     17540      5847  TIP3      H1            -15.7654305720       26.3882675841      -11.6387063352  W2        5847            0.0000000000
     17541      5847  TIP3      H2            -14.8465405720       26.0883275841      -10.4735763352  W2        5847            0.0000000000
     17542      5848  TIP3      OH2           -14.0682005720       30.1869875841       -8.1391863352  W2        5848            0.0000000000
     17543      5848  TIP3      H1            -14.1630705720       29.6082975841       -8.8957263352  W2        5848            0.0000000000
     17544      5848  TIP3      H2            -13.3388405720       29.8155575841       -7.6429063352  W2        5848            0.0000000000
     17545      5849  TIP3      OH2           -15.0684005720       25.5274875841       -7.1869063352  W2        5849            0.0000000000
     17546      5849  TIP3      H1            -14.5031505720       25.6489075841       -7.9497863352  W2        5849            0.0000000000
     17547      5849  TIP3      H2            -14.7495105720       26.1649875841       -6.5480563352  W2        5849            0.0000000000
     17548      5850  TIP3      OH2            -8.7591805720       31.0306775841       -6.4528563352  W2        5850            0.0000000000
     17549      5850  TIP3      H1             -8.9995205720       31.6929875841       -5.8049363352  W2        5850            0.0000000000
     17550      5850  TIP3      H2             -8.9573605720       30.1961975841       -6.0278963352  W2        5850            0.0000000000
     17551      5851  TIP3      OH2           -14.1883305720       29.9267575841       -2.4697163352  W2        5851            0.0000000000
     17552      5851  TIP3      H1            -14.4995805720       30.7090775841       -2.0143963352  W2        5851            0.0000000000
     17553      5851  TIP3      H2            -14.8383105720       29.7736675841       -3.1555163352  W2        5851            0.0000000000
     17554      5852  TIP3      OH2            -8.2093705720       25.2905975841      -15.0177863352  W2        5852            0.0000000000
     17555      5852  TIP3      H1             -7.6298205720       25.4406275841      -14.2708963352  W2        5852            0.0000000000
     17556      5852  TIP3      H2             -7.7953705720       25.7613375841      -15.7411463352  W2        5852            0.0000000000
     17557      5853  TIP3      OH2           -17.2683405720       26.1248675841       -3.2411463352  W2        5853            0.0000000000
     17558      5853  TIP3      H1            -17.1980205720       26.7755475841       -2.5426463352  W2        5853            0.0000000000
     17559      5853  TIP3      H2            -18.1591205720       26.2276175841       -3.5760563352  W2        5853            0.0000000000
     17560      5854  TIP3      OH2           -10.4828805720       32.0274475841      -11.5824763352  W2        5854            0.0000000000
     17561      5854  TIP3      H1            -10.0091205720       32.3230775841      -10.8050563352  W2        5854            0.0000000000
     17562      5854  TIP3      H2            -11.0459505720       32.7656075841      -11.8155163352  W2        5854            0.0000000000
     17563      5855  TIP3      OH2           -15.9487405720       31.9982575841       -1.7063363352  W2        5855            0.0000000000
     17564      5855  TIP3      H1            -15.9412105720       31.8622275841       -2.6537863352  W2        5855            0.0000000000
     17565      5855  TIP3      H2            -16.8647005720       31.8810675841       -1.4543363352  W2        5855            0.0000000000
     17566      5856  TIP3      OH2            -4.5105305720       17.0406375841      -15.2048163352  W2        5856            0.0000000000
     17567      5856  TIP3      H1             -5.4104605720       17.1795375841      -14.9097563352  W2        5856            0.0000000000
     17568      5856  TIP3      H2             -4.2586905720       17.8720975841      -15.6066463352  W2        5856            0.0000000000
     17569      5857  TIP3      OH2           -16.4446805720       25.8283575841      -13.2311263352  W2        5857            0.0000000000
     17570      5857  TIP3      H1            -16.7365505720       26.5965275841      -13.7219963352  W2        5857            0.0000000000
     17571      5857  TIP3      H2            -17.1191605720       25.1689775841      -13.3939863352  W2        5857            0.0000000000
     17572      5858  TIP3      OH2            -3.3213905720       31.4068775841      -16.8284263352  W2        5858            0.0000000000
     17573      5858  TIP3      H1             -3.2480405720       32.3458975841      -16.6578963352  W2        5858            0.0000000000
     17574      5858  TIP3      H2             -2.4158805720       31.1017375841      -16.8846963352  W2        5858            0.0000000000
     17575      5859  TIP3      OH2           -20.3516705720       28.1912775841       -4.4161463352  W2        5859            0.0000000000
     17576      5859  TIP3      H1            -20.8528305720       28.1632175841       -5.2311763352  W2        5859            0.0000000000
     17577      5859  TIP3      H2            -20.3463005720       27.2855975841       -4.1064163352  W2        5859            0.0000000000
     17578      5860  TIP3      OH2           -20.6014005720       30.9716575841       -7.5321263352  W2        5860            0.0000000000
     17579      5860  TIP3      H1            -19.6553405720       30.8273575841       -7.5511763352  W2        5860            0.0000000000
     17580      5860  TIP3      H2            -20.7137705720       31.7559375841       -6.9950063352  W2        5860            0.0000000000
     17581      5861  TIP3      OH2            -2.4035505720       31.6376275841       -1.8497563352  W2        5861            0.0000000000
     17582      5861  TIP3      H1             -2.4528705720       30.6824375841       -1.8869963352  W2        5861            0.0000000000
     17583      5861  TIP3      H2             -3.2303205720       31.9051575841       -1.4483763352  W2        5861            0.0000000000
     17584      5862  TIP3      OH2           -11.4251505720       31.2115475841       -2.9736163352  W2        5862            0.0000000000
     17585      5862  TIP3      H1            -11.3376905720       32.0380075841       -2.4987063352  W2        5862            0.0000000000
     17586      5862  TIP3      H2            -12.2886405720       30.8819275841       -2.7246863352  W2        5862            0.0000000000
     17587      5863  TIP3      OH2           -11.0105705720       34.9839175841      -13.1675563352  W2        5863            0.0000000000
     17588      5863  TIP3      H1            -11.0859705720       34.8626375841      -14.1140363352  W2        5863            0.0000000000
     17589      5863  TIP3      H2            -10.9777005720       35.9331875841      -13.0490963352  W2        5863            0.0000000000
     17590      5864  TIP3      OH2           -17.3571905720       33.7726175841      -11.3866563352  W2        5864            0.0000000000
     17591      5864  TIP3      H1            -17.2051505720       33.4246575841      -10.5080063352  W2        5864            0.0000000000
     17592      5864  TIP3      H2            -18.2081505720       33.4163475841      -11.6419363352  W2        5864            0.0000000000
     17593      5865  TIP3      OH2            -7.9089705720       34.1379375841      -16.1653163352  W2        5865            0.0000000000
     17594      5865  TIP3      H1             -7.5341305720       33.3935475841      -16.6360563352  W2        5865            0.0000000000
     17595      5865  TIP3      H2             -7.9046005720       33.8679975841      -15.2469863352  W2        5865            0.0000000000
     17596      5866  TIP3      OH2            -8.2401605720       34.0636475841      -13.4160963352  W2        5866            0.0000000000
     17597      5866  TIP3      H1             -9.1751805720       34.1638375841      -13.2373963352  W2        5866            0.0000000000
     17598      5866  TIP3      H2             -7.9599705720       33.3542475841      -12.8377763352  W2        5866            0.0000000000
     17599      5867  TIP3      OH2            -5.2515705720       23.1308775841       -1.3695363352  W2        5867            0.0000000000
     17600      5867  TIP3      H1             -5.6588905720       23.6114375841       -2.0902063352  W2        5867            0.0000000000
     17601      5867  TIP3      H2             -5.2110005720       22.2254775841       -1.6774563352  W2        5867            0.0000000000
     17602      5868  TIP3      OH2           -18.1026205720       29.5148175841       -3.3728663352  W2        5868            0.0000000000
     17603      5868  TIP3      H1            -17.8864905720       29.1533775841       -2.5132863352  W2        5868            0.0000000000
     17604      5868  TIP3      H2            -18.9581505720       29.1401975841       -3.5825163352  W2        5868            0.0000000000
     17605      5869  TIP3      OH2           -15.4838205720       17.9848675841       -7.3774463352  W2        5869            0.0000000000
     17606      5869  TIP3      H1            -16.3454505720       17.8976875841       -7.7851563352  W2        5869            0.0000000000
     17607      5869  TIP3      H2            -15.5062505720       18.8408775841       -6.9496863352  W2        5869            0.0000000000
     17608      5870  TIP3      OH2           -10.8210405720       17.7069075841       -4.0027463352  W2        5870            0.0000000000
     17609      5870  TIP3      H1            -10.4007305720       17.2916175841       -3.2496863352  W2        5870            0.0000000000
     17610      5870  TIP3      H2            -11.7540805720       17.5282375841       -3.8855463352  W2        5870            0.0000000000
     17611      5871  TIP3      OH2            -7.4945505720       21.4624275841       -3.1492963352  W2        5871            0.0000000000
     17612      5871  TIP3      H1             -8.0086005720       21.3366475841       -2.3516963352  W2        5871            0.0000000000
     17613      5871  TIP3      H2             -7.6500805720       22.3747375841       -3.3936763352  W2        5871            0.0000000000
     17614      5872  TIP3      OH2            -6.7320605720       26.3234275841      -17.3879963352  W2        5872            0.0000000000
     17615      5872  TIP3      H1             -6.6899805720       26.1008175841      -18.3179963352  W2        5872            0.0000000000
     17616      5872  TIP3      H2             -5.8828505720       26.7221375841      -17.1980063352  W2        5872            0.0000000000
     17617      5873  TIP3      OH2           -11.1593105720       20.1992475841      -16.7176663352  W2        5873            0.0000000000
     17618      5873  TIP3      H1            -11.4128305720       20.2184075841      -15.7948563352  W2        5873            0.0000000000
     17619      5873  TIP3      H2            -11.4161005720       19.3277875841      -17.0190463352  W2        5873            0.0000000000
     17620      5874  TIP3      OH2           -15.3928105720       22.9503175841       -6.2824263352  W2        5874            0.0000000000
     17621      5874  TIP3      H1            -16.0346005720       22.9100475841       -5.5734163352  W2        5874            0.0000000000
     17622      5874  TIP3      H2            -15.3556105720       23.8767875841       -6.5201263352  W2        5874            0.0000000000
     17623      5875  TIP3      OH2           -15.3959005720       23.1713275841      -11.3704263352  W2        5875            0.0000000000
     17624      5875  TIP3      H1            -16.2886105720       22.8309375841      -11.4290463352  W2        5875            0.0000000000
     17625      5875  TIP3      H2            -14.9452405720       22.7944175841      -12.1261063352  W2        5875            0.0000000000
     17626      5876  TIP3      OH2            -9.8603505720       23.5873575841      -12.5533463352  W2        5876            0.0000000000
     17627      5876  TIP3      H1            -10.2693205720       24.4022175841      -12.8448663352  W2        5876            0.0000000000
     17628      5876  TIP3      H2             -9.1397305720       23.4473675841      -13.1676363352  W2        5876            0.0000000000
     17629      5877  TIP3      OH2           -10.7581905720       23.7629975841       -1.0652763352  W2        5877            0.0000000000
     17630      5877  TIP3      H1            -11.3208105720       23.0581575841       -0.7444963352  W2        5877            0.0000000000
     17631      5877  TIP3      H2             -9.9318505720       23.6421875841       -0.5975163352  W2        5877            0.0000000000
     17632      5878  TIP3      OH2            -8.8555805720       23.0333975841       -9.7393763352  W2        5878            0.0000000000
     17633      5878  TIP3      H1             -9.0511305720       23.6390775841      -10.4543163352  W2        5878            0.0000000000
     17634      5878  TIP3      H2             -8.6743205720       22.1999175841      -10.1737463352  W2        5878            0.0000000000
     17635      5879  TIP3      OH2           -17.6427605720       23.2706675841       -4.4152263352  W2        5879            0.0000000000
     17636      5879  TIP3      H1            -17.6808205720       23.6708275841       -3.5465163352  W2        5879            0.0000000000
     17637      5879  TIP3      H2            -18.1336505720       22.4539075841       -4.3249363352  W2        5879            0.0000000000
     17638      5880  TIP3      OH2           -14.2770205720       20.6448975841      -17.6166263352  W2        5880            0.0000000000
     17639      5880  TIP3      H1            -14.7079505720       20.1999075841      -16.8868863352  W2        5880            0.0000000000
     17640      5880  TIP3      H2            -14.9951505720       21.0165275841      -18.1288763352  W2        5880            0.0000000000
     17641      5881  TIP3      OH2           -21.0346805720       20.3868475841      -10.5647563352  W2        5881            0.0000000000
     17642      5881  TIP3      H1            -20.4039105720       20.3580575841       -9.8453663352  W2        5881            0.0000000000
     17643      5881  TIP3      H2            -20.5852505720       19.9617175841      -11.2951663352  W2        5881            0.0000000000
     17644      5882  TIP3      OH2           -19.7604705720       21.1330475841      -15.1407163352  W2        5882            0.0000000000
     17645      5882  TIP3      H1            -19.2863005720       21.7240375841      -15.7256263352  W2        5882            0.0000000000
     17646      5882  TIP3      H2            -20.4778305720       21.6633375841      -14.7937063352  W2        5882            0.0000000000
     17647      5883  TIP3      OH2            -9.5916605720       24.6715275841       -5.0681363352  W2        5883            0.0000000000
     17648      5883  TIP3      H1             -9.2681805720       24.0404975841       -5.7110863352  W2        5883            0.0000000000
     17649      5883  TIP3      H2            -10.0317305720       24.1367475841       -4.4073963352  W2        5883            0.0000000000
     17650      5884  TIP3      OH2           -12.8143705720       20.5990775841      -10.2840163352  W2        5884            0.0000000000
     17651      5884  TIP3      H1            -13.7252605720       20.6557575841       -9.9954163352  W2        5884            0.0000000000
     17652      5884  TIP3      H2            -12.3090805720       20.5386275841       -9.4732963352  W2        5884            0.0000000000
     17653      5885  TIP3      OH2           -17.9860305720       22.2277075841      -11.4572563352  W2        5885            0.0000000000
     17654      5885  TIP3      H1            -18.8752305720       22.3272575841      -11.7972963352  W2        5885            0.0000000000
     17655      5885  TIP3      H2            -17.6895405720       21.3860075841      -11.8034663352  W2        5885            0.0000000000
     17656      5886  TIP3      OH2           -14.3328505720       22.2279675841      -13.8007963352  W2        5886            0.0000000000
     17657      5886  TIP3      H1            -13.4013005720       22.3569675841      -13.6224863352  W2        5886            0.0000000000
     17658      5886  TIP3      H2            -14.5478205720       22.8973975841      -14.4503263352  W2        5886            0.0000000000
     17659      5887  TIP3      OH2            -8.4091805720       19.8337075841       -7.0198363352  W2        5887            0.0000000000
     17660      5887  TIP3      H1             -9.0860205720       19.9650175841       -6.3558663352  W2        5887            0.0000000000
     17661      5887  TIP3      H2             -8.8946905720       19.6786575841       -7.8300663352  W2        5887            0.0000000000
     17662      5888  TIP3      OH2           -15.6588305720       23.4221875841      -16.2341863352  W2        5888            0.0000000000
     17663      5888  TIP3      H1            -16.2013205720       23.0425675841      -16.9254263352  W2        5888            0.0000000000
     17664      5888  TIP3      H2            -14.8253405720       23.6166575841      -16.6627763352  W2        5888            0.0000000000
     17665      5889  TIP3      OH2            -5.1216705720       35.5052475841       -0.7430763352  W2        5889            0.0000000000
     17666      5889  TIP3      H1             -4.9218005720       35.9294375841       -1.5775463352  W2        5889            0.0000000000
     17667      5889  TIP3      H2             -4.4663005720       35.8490675841       -0.1360363352  W2        5889            0.0000000000
     17668      5890  TIP3      OH2           -17.5236905720       27.9793775841       -1.1350263352  W2        5890            0.0000000000
     17669      5890  TIP3      H1            -16.7914505720       28.2339675841       -0.5735763352  W2        5890            0.0000000000
     17670      5890  TIP3      H2            -18.3038205720       28.1839175841       -0.6194863352  W2        5890            0.0000000000
     17671      5891  TIP3      OH2           -11.4944005720       23.3863775841       -8.3970563352  W2        5891            0.0000000000
     17672      5891  TIP3      H1            -10.9300605720       22.8400375841       -8.9440963352  W2        5891            0.0000000000
     17673      5891  TIP3      H2            -11.6420605720       22.8645675841       -7.6082963352  W2        5891            0.0000000000
     17674      5892  TIP3      OH2           -16.4924305720       19.5229875841      -11.9785763352  W2        5892            0.0000000000
     17675      5892  TIP3      H1            -16.8094805720       18.6205175841      -12.0140363352  W2        5892            0.0000000000
     17676      5892  TIP3      H2            -15.7110205720       19.5247275841      -12.5314163352  W2        5892            0.0000000000
     17677      5893  TIP3      OH2           -12.8678105720       21.7749875841       -5.9830163352  W2        5893            0.0000000000
     17678      5893  TIP3      H1            -13.7032805720       22.2289375841       -5.8727763352  W2        5893            0.0000000000
     17679      5893  TIP3      H2            -12.3437505720       22.0508375841       -5.2310263352  W2        5893            0.0000000000
     17680      5894  TIP3      OH2           -12.3235505720       27.9877575841      -14.2983763352  W2        5894            0.0000000000
     17681      5894  TIP3      H1            -13.0684505720       27.4802875841      -14.6205863352  W2        5894            0.0000000000
     17682      5894  TIP3      H2            -12.4578305720       28.0365575841      -13.3518963352  W2        5894            0.0000000000
     17683      5895  TIP3      OH2            -5.1736605720       27.1205775841       -5.5116163352  W2        5895            0.0000000000
     17684      5895  TIP3      H1             -4.5317805720       27.5772075841       -6.0553963352  W2        5895            0.0000000000
     17685      5895  TIP3      H2             -6.0039705720       27.2338175841       -5.9742063352  W2        5895            0.0000000000
     17686      5896  TIP3      OH2            -8.4258705720       20.8017475841      -16.0991163352  W2        5896            0.0000000000
     17687      5896  TIP3      H1             -9.3644505720       20.9133075841      -16.2502363352  W2        5896            0.0000000000
     17688      5896  TIP3      H2             -8.1286605720       21.6584375841      -15.7925463352  W2        5896            0.0000000000
     17689      5897  TIP3      OH2           -10.8043405720       28.1720875841       -3.0614663352  W2        5897            0.0000000000
     17690      5897  TIP3      H1            -11.1497305720       27.7903275841       -2.2545063352  W2        5897            0.0000000000
     17691      5897  TIP3      H2            -11.0043305720       29.1054475841       -2.9901763352  W2        5897            0.0000000000
     17692      5898  TIP3      OH2            -7.7075205720       22.6690175841      -14.4383763352  W2        5898            0.0000000000
     17693      5898  TIP3      H1             -6.8156205720       22.5315175841      -14.1192563352  W2        5898            0.0000000000
     17694      5898  TIP3      H2             -7.6511605720       23.4596275841      -14.9750263352  W2        5898            0.0000000000
     17695      5899  TIP3      OH2           -17.1987205720       27.2827575841       -8.5285863352  W2        5899            0.0000000000
     17696      5899  TIP3      H1            -16.4540005720       27.2803275841       -9.1299363352  W2        5899            0.0000000000
     17697      5899  TIP3      H2            -17.1210605720       26.4591375841       -8.0470763352  W2        5899            0.0000000000
     17698      5900  TIP3      OH2           -10.1981405720       29.4461875841      -15.2729163352  W2        5900            0.0000000000
     17699      5900  TIP3      H1            -10.4933005720       30.2729775841      -14.8914363352  W2        5900            0.0000000000
     17700      5900  TIP3      H2            -10.9011405720       28.8268775841      -15.0767763352  W2        5900            0.0000000000
     17701      5901  TIP3      OH2           -20.1907505720       25.7434475841       -3.2137363352  W2        5901            0.0000000000
     17702      5901  TIP3      H1            -19.9678905720       25.3254075841       -2.3819863352  W2        5901            0.0000000000
     17703      5901  TIP3      H2            -20.7927405720       25.1309475841       -3.6364563352  W2        5901            0.0000000000
     17704      5902  TIP3      OH2           -13.1742605720       25.2604375841       -1.0007663352  W2        5902            0.0000000000
     17705      5902  TIP3      H1            -13.4701805720       25.0947375841       -1.8958563352  W2        5902            0.0000000000
     17706      5902  TIP3      H2            -12.2427405720       25.0404675841       -1.0113763352  W2        5902            0.0000000000
     17707      5903  TIP3      OH2            -8.5539805720       30.6336375841       -3.1109663352  W2        5903            0.0000000000
     17708      5903  TIP3      H1             -9.4545505720       30.8168975841       -3.3785763352  W2        5903            0.0000000000
     17709      5903  TIP3      H2             -8.5198705720       30.8925675841       -2.1900863352  W2        5903            0.0000000000
     17710      5904  TIP3      OH2            -2.8226505720       22.8784275841      -14.7437063352  W2        5904            0.0000000000
     17711      5904  TIP3      H1             -3.3770205720       22.4822275841      -15.4159563352  W2        5904            0.0000000000
     17712      5904  TIP3      H2             -2.7222905720       23.7889475841      -15.0213763352  W2        5904            0.0000000000
     17713      5905  TIP3      OH2            -2.8594505720       28.6785975841       -1.9065563352  W2        5905            0.0000000000
     17714      5905  TIP3      H1             -3.7106005720       28.9169775841       -2.2739163352  W2        5905            0.0000000000
     17715      5905  TIP3      H2             -2.2691105720       28.6619175841       -2.6598463352  W2        5905            0.0000000000
     17716      5906  TIP3      OH2            -4.5274805720       31.6644675841      -14.2784963352  W2        5906            0.0000000000
     17717      5906  TIP3      H1             -4.9003705720       30.8388475841      -13.9694363352  W2        5906            0.0000000000
     17718      5906  TIP3      H2             -4.2501305720       31.4814075841      -15.1761563352  W2        5906            0.0000000000
     17719      5907  TIP3      OH2            -7.3670905720       26.4724175841       -7.2573063352  W2        5907            0.0000000000
     17720      5907  TIP3      H1             -8.2954005720       26.2406075841       -7.2843763352  W2        5907            0.0000000000
     17721      5907  TIP3      H2             -6.9159805720       25.6953975841       -7.5874263352  W2        5907            0.0000000000
     17722      5908  TIP3      OH2           -14.8237805720       30.8005775841      -11.1244363352  W2        5908            0.0000000000
     17723      5908  TIP3      H1            -14.2965605720       31.5740175841      -11.3245563352  W2        5908            0.0000000000
     17724      5908  TIP3      H2            -15.7039305720       31.0254975841      -11.4260363352  W2        5908            0.0000000000
     17725      5909  TIP3      OH2           -19.0690105720       25.6629875841      -16.5371963352  W2        5909            0.0000000000
     17726      5909  TIP3      H1            -18.4530205720       26.2897075841      -16.1577163352  W2        5909            0.0000000000
     17727      5909  TIP3      H2            -19.9307505720       25.9789675841      -16.2655463352  W2        5909            0.0000000000
     17728      5910  TIP3      OH2           -13.3965505720       28.4635675841      -11.5480063352  W2        5910            0.0000000000
     17729      5910  TIP3      H1            -13.6375505720       29.3890075841      -11.5064763352  W2        5910            0.0000000000
     17730      5910  TIP3      H2            -14.1371905720       28.0046975841      -11.1516163352  W2        5910            0.0000000000
     17731      5911  TIP3      OH2           -12.8818905720       32.6129275841       -5.2328963352  W2        5911            0.0000000000
     17732      5911  TIP3      H1            -12.5194205720       33.4674875841       -5.4664563352  W2        5911            0.0000000000
     17733      5911  TIP3      H2            -12.3503705720       32.3210875841       -4.4922663352  W2        5911            0.0000000000
     17734      5912  TIP3      OH2           -14.7134705720       33.4853275841      -12.0027863352  W2        5912            0.0000000000
     17735      5912  TIP3      H1            -15.6634205720       33.5910675841      -11.9514563352  W2        5912            0.0000000000
     17736      5912  TIP3      H2            -14.3616605720       34.3060675841      -11.6580363352  W2        5912            0.0000000000
     17737      5913  TIP3      OH2            -9.3378105720       28.7119975841       -5.5323363352  W2        5913            0.0000000000
     17738      5913  TIP3      H1             -9.7636805720       28.4841675841       -4.7059363352  W2        5913            0.0000000000
     17739      5913  TIP3      H2             -8.7572305720       27.9731775841       -5.7148063352  W2        5913            0.0000000000
     17740      5914  TIP3      OH2            -7.1349205720       29.6410475841      -16.4584363352  W2        5914            0.0000000000
     17741      5914  TIP3      H1             -6.7816105720       29.2610275841      -15.6540863352  W2        5914            0.0000000000
     17742      5914  TIP3      H2             -8.0835705720       29.5475275841      -16.3715063352  W2        5914            0.0000000000
     17743      5915  TIP3      OH2            -6.6793905720       33.2639475841       -3.0628563352  W2        5915            0.0000000000
     17744      5915  TIP3      H1             -7.2810705720       32.7082375841       -3.5582263352  W2        5915            0.0000000000
     17745      5915  TIP3      H2             -6.3980205720       33.9309275841       -3.6891163352  W2        5915            0.0000000000
     17746      5916  TIP3      OH2            -2.6314805720       34.1202975841      -16.2574163352  W2        5916            0.0000000000
     17747      5916  TIP3      H1             -1.8876905720       34.7063475841      -16.3972563352  W2        5916            0.0000000000
     17748      5916  TIP3      H2             -3.3256705720       34.6888775841      -15.9241763352  W2        5916            0.0000000000
     17749      5917  TIP3      OH2           -18.5568005720       20.4967175841       -3.6555963352  W2        5917            0.0000000000
     17750      5917  TIP3      H1            -19.4495705720       20.8352575841       -3.7231963352  W2        5917            0.0000000000
     17751      5917  TIP3      H2            -18.6555205720       19.6413275841       -3.2375163352  W2        5917            0.0000000000
     17752      5918  TIP3      OH2            -6.2689905720       28.3132475841      -14.2316463352  W2        5918            0.0000000000
     17753      5918  TIP3      H1             -6.5462305720       27.5851775841      -13.6755363352  W2        5918            0.0000000000
     17754      5918  TIP3      H2             -5.3416905720       28.4324475841      -14.0263863352  W2        5918            0.0000000000
     17755      5919  TIP3      OH2           -18.9056005720       32.3011575841       -5.2206563352  W2        5919            0.0000000000
     17756      5919  TIP3      H1            -18.6885705720       31.3693975841       -5.2516863352  W2        5919            0.0000000000
     17757      5919  TIP3      H2            -18.6592505720       32.5756575841       -4.3373763352  W2        5919            0.0000000000
     17758      5920  TIP3      OH2           -13.0441405720       30.7526575841      -18.0114363352  W2        5920            0.0000000000
     17759      5920  TIP3      H1            -12.8051605720       30.0044675841      -18.5585463352  W2        5920            0.0000000000
     17760      5920  TIP3      H2            -13.3130105720       30.3648275841      -17.1786563352  W2        5920            0.0000000000
     17761      5921  TIP3      OH2           -14.1070805720       30.3230375841      -15.5551763352  W2        5921            0.0000000000
     17762      5921  TIP3      H1            -13.9602805720       29.8030175841      -14.7650863352  W2        5921            0.0000000000
     17763      5921  TIP3      H2            -14.1099105720       31.2297975841      -15.2485863352  W2        5921            0.0000000000
     17764      5922  TIP3      OH2           -17.6539705720       27.5753675841      -15.0446363352  W2        5922            0.0000000000
     17765      5922  TIP3      H1            -18.3400405720       27.9276175841      -14.4776663352  W2        5922            0.0000000000
     17766      5922  TIP3      H2            -17.1311805720       28.3383275841      -15.2912063352  W2        5922            0.0000000000
     17767      5923  TIP3      OH2            -9.8224605720       20.2377475841       -4.7657363352  W2        5923            0.0000000000
     17768      5923  TIP3      H1             -9.1236705720       20.3116175841       -4.1157663352  W2        5923            0.0000000000
     17769      5923  TIP3      H2            -10.2033205720       19.3732475841       -4.6114463352  W2        5923            0.0000000000
     17770      5924  TIP3      OH2            -9.0379705720       19.8899175841      -13.6685063352  W2        5924            0.0000000000
     17771      5924  TIP3      H1             -8.8181405720       20.3614575841      -14.4719663352  W2        5924            0.0000000000
     17772      5924  TIP3      H2             -8.4795705720       20.2841775841      -12.9984463352  W2        5924            0.0000000000
     17773      5925  TIP3      OH2           -11.3693605720       32.0203975841      -14.8057563352  W2        5925            0.0000000000
     17774      5925  TIP3      H1            -12.1857505720       32.5173675841      -14.7533263352  W2        5925            0.0000000000
     17775      5925  TIP3      H2            -10.8397305720       32.4957475841      -15.4458763352  W2        5925            0.0000000000
     17776      5926  TIP3      OH2           -11.8379805720       21.6177975841      -12.8336663352  W2        5926            0.0000000000
     17777      5926  TIP3      H1            -11.0257205720       22.1221175841      -12.7874963352  W2        5926            0.0000000000
     17778      5926  TIP3      H2            -12.0826805720       21.4727675841      -11.9197063352  W2        5926            0.0000000000
     17779      5927  TIP3      OH2           -11.3023405720       22.6040675841       -3.6490063352  W2        5927            0.0000000000
     17780      5927  TIP3      H1            -11.1833105720       23.1776075841       -2.8919663352  W2        5927            0.0000000000
     17781      5927  TIP3      H2            -10.6468805720       21.9160075841       -3.5342263352  W2        5927            0.0000000000
     17782      5928  TIP3      OH2           -10.9543105720       18.6990975841      -11.8955563352  W2        5928            0.0000000000
     17783      5928  TIP3      H1            -11.3009605720       19.3161575841      -11.2511263352  W2        5928            0.0000000000
     17784      5928  TIP3      H2            -10.2956205720       19.1996675841      -12.3770063352  W2        5928            0.0000000000
     17785      5929  TIP3      OH2           -14.0310505720       33.0641175841      -14.8240663352  W2        5929            0.0000000000
     17786      5929  TIP3      H1            -13.8701805720       33.8638675841      -15.3248063352  W2        5929            0.0000000000
     17787      5929  TIP3      H2            -14.2282705720       33.3707175841      -13.9390063352  W2        5929            0.0000000000
     17788      5930  TIP3      OH2           -15.2966105720       19.7620375841      -15.2083063352  W2        5930            0.0000000000
     17789      5930  TIP3      H1            -15.3801305720       20.6503475841      -14.8616663352  W2        5930            0.0000000000
     17790      5930  TIP3      H2            -14.4065805720       19.4967075841      -14.9766263352  W2        5930            0.0000000000
     17791      5931  TIP3      OH2            -5.0977605720       20.5110975841       -2.8140363352  W2        5931            0.0000000000
     17792      5931  TIP3      H1             -6.0141805720       20.7732675841       -2.9016663352  W2        5931            0.0000000000
     17793      5931  TIP3      H2             -4.7622605720       20.5079975841       -3.7105063352  W2        5931            0.0000000000
     17794      5932  TIP3      OH2            -6.4956605720       24.2611975841       -8.7183063352  W2        5932            0.0000000000
     17795      5932  TIP3      H1             -7.2932205720       23.8462175841       -9.0468063352  W2        5932            0.0000000000
     17796      5932  TIP3      H2             -6.0505505720       23.5705675841       -8.2272563352  W2        5932            0.0000000000
     17797      5933  TIP3      OH2           -17.0380805720       30.1892575841      -16.1478563352  W2        5933            0.0000000000
     17798      5933  TIP3      H1            -16.4459305720       30.8887375841      -15.8716163352  W2        5933            0.0000000000
     17799      5933  TIP3      H2            -16.5787805720       29.7562075841      -16.8673963352  W2        5933            0.0000000000
     17800      5934  TIP3      OH2           -18.7221605720       22.8535575841      -17.0319163352  W2        5934            0.0000000000
     17801      5934  TIP3      H1            -18.7669005720       23.7928675841      -16.8532163352  W2        5934            0.0000000000
     17802      5934  TIP3      H2            -19.6098405720       22.6180475841      -17.3017063352  W2        5934            0.0000000000
     17803      5935  TIP3      OH2            -5.4092005720       33.5174475841       -7.0959563352  W2        5935            0.0000000000
     17804      5935  TIP3      H1             -5.5647705720       34.1958875841       -7.7530263352  W2        5935            0.0000000000
     17805      5935  TIP3      H2             -4.4765605720       33.5893775841       -6.8928963352  W2        5935            0.0000000000
     17806      5936  TIP3      OH2           -17.9139605720       17.6352175841       -8.3588163352  W2        5936            0.0000000000
     17807      5936  TIP3      H1            -18.1429805720       17.6944675841       -9.2863163352  W2        5936            0.0000000000
     17808      5936  TIP3      H2            -18.3566205720       16.8437675841       -8.0524063352  W2        5936            0.0000000000
     17809      5937  TIP3      OH2           -18.9836305720       31.5759275841      -12.1982363352  W2        5937            0.0000000000
     17810      5937  TIP3      H1            -19.8157705720       32.0481975841      -12.1710963352  W2        5937            0.0000000000
     17811      5937  TIP3      H2            -18.4378005720       32.0856875841      -12.7969263352  W2        5937            0.0000000000
     17812      5938  TIP3      OH2           -19.6952605720       34.1882975841       -0.8684363352  W2        5938            0.0000000000
     17813      5938  TIP3      H1            -19.1550405720       33.9716975841       -0.1085163352  W2        5938            0.0000000000
     17814      5938  TIP3      H2            -20.1764605720       33.3828975841       -1.0581863352  W2        5938            0.0000000000
     17815      5939  TIP3      OH2           -15.0979205720       33.1077375841        0.7519836648  W2        5939            0.0000000000
     17816      5939  TIP3      H1            -14.3302005720       32.6488175841        1.0929036648  W2        5939            0.0000000000
     17817      5939  TIP3      H2            -15.1193005720       32.8817175841       -0.1778963352  W2        5939            0.0000000000
     17818      5940  TIP3      OH2           -11.0059605720       32.6157975841      -17.8728363352  W2        5940            0.0000000000
     17819      5940  TIP3      H1            -11.6498605720       31.9846575841      -17.5514663352  W2        5940            0.0000000000
     17820      5940  TIP3      H2            -10.2441305720       32.0845975841      -18.1044863352  W2        5940            0.0000000000
     17821      5941  TIP3      OH2            -8.5210505720       31.4878475841       -0.5188663352  W2        5941            0.0000000000
     17822      5941  TIP3      H1             -8.8721005720       30.6311475841       -0.2758263352  W2        5941            0.0000000000
     17823      5941  TIP3      H2             -7.7947305720       31.6305175841        0.0880336648  W2        5941            0.0000000000
     17824      5942  TIP3      OH2            -6.4016705720       32.4327875841      -17.6390363352  W2        5942            0.0000000000
     17825      5942  TIP3      H1             -6.1186305720       31.6383075841      -17.1863463352  W2        5942            0.0000000000
     17826      5942  TIP3      H2             -5.6618805720       32.6658875841      -18.1999263352  W2        5942            0.0000000000
     17827      5943  TIP3      OH2           -19.7883105720       27.9987075841        0.0859936648  W2        5943            0.0000000000
     17828      5943  TIP3      H1            -19.6442605720       27.0967775841       -0.2003363352  W2        5943            0.0000000000
     17829      5943  TIP3      H2            -20.5605705720       28.2849175841       -0.4017763352  W2        5943            0.0000000000
     17830      5944  TIP3      OH2           -15.4469405720       28.3422775841      -17.7815463352  W2        5944            0.0000000000
     17831      5944  TIP3      H1            -15.3825305720       27.5482375841      -17.2509063352  W2        5944            0.0000000000
     17832      5944  TIP3      H2            -14.7940205720       28.2235575841      -18.4713463352  W2        5944            0.0000000000
     17833      5945  TIP3      OH2           -13.1327005720       27.9685175841       -0.4813663352  W2        5945            0.0000000000
     17834      5945  TIP3      H1            -13.4613205720       28.2393275841       -1.3386263352  W2        5945            0.0000000000
     17835      5945  TIP3      H2            -12.9808805720       27.0274975841       -0.5688663352  W2        5945            0.0000000000
     17836      5946  TIP3      OH2           -10.0946005720       29.3894475841      -18.0457463352  W2        5946            0.0000000000
     17837      5946  TIP3      H1            -10.3631905720       29.5696575841      -17.1448563352  W2        5946            0.0000000000
     17838      5946  TIP3      H2            -10.3010405720       28.4640675841      -18.1771663352  W2        5946            0.0000000000
     17839      5947  TIP3      OH2            -7.3981805720       27.8842475841       -3.0981363352  W2        5947            0.0000000000
     17840      5947  TIP3      H1             -6.6527005720       28.4726175841       -3.2177363352  W2        5947            0.0000000000
     17841      5947  TIP3      H2             -8.1555005720       28.4662175841       -3.0348263352  W2        5947            0.0000000000
     17842      5948  TIP3      OH2           -18.9556605720       25.1990375841       -0.4940763352  W2        5948            0.0000000000
     17843      5948  TIP3      H1            -18.5475405720       24.3416975841       -0.6150163352  W2        5948            0.0000000000
     17844      5948  TIP3      H2            -19.2159005720       25.2131675841        0.4269536648  W2        5948            0.0000000000
     17845      5949  TIP3      OH2           -14.2975605720       26.3148975841      -15.4757463352  W2        5949            0.0000000000
     17846      5949  TIP3      H1            -14.7573605720       25.8307275841      -14.7898963352  W2        5949            0.0000000000
     17847      5949  TIP3      H2            -14.0426905720       25.6464375841      -16.1116963352  W2        5949            0.0000000000
     17848      5950  TIP3      OH2           -15.0086305720       24.2076075841       -3.1197863352  W2        5950            0.0000000000
     17849      5950  TIP3      H1            -15.6270205720       24.8822675841       -2.8393163352  W2        5950            0.0000000000
     17850      5950  TIP3      H2            -14.6645105720       24.5289975841       -3.9531663352  W2        5950            0.0000000000
     17851      5951  TIP3      OH2           -13.2265205720       24.5580775841      -17.2134263352  W2        5951            0.0000000000
     17852      5951  TIP3      H1            -13.4070205720       24.4031975841      -18.1405963352  W2        5951            0.0000000000
     17853      5951  TIP3      H2            -12.2764705720       24.6659475841      -17.1686363352  W2        5951            0.0000000000
     17854      5952  TIP3      OH2            -9.9888105720       26.6791375841        0.1576936648  W2        5952            0.0000000000
     17855      5952  TIP3      H1             -9.0356905720       26.7630475841        0.1302936648  W2        5952            0.0000000000
     17856      5952  TIP3      H2            -10.1493505720       25.9673175841        0.7771836648  W2        5952            0.0000000000
     17857      5953  TIP3      OH2            -3.8366905720       26.9124975841      -17.7676163352  W2        5953            0.0000000000
     17858      5953  TIP3      H1             -4.1102105720       26.4880475841      -18.5807863352  W2        5953            0.0000000000
     17859      5953  TIP3      H2             -3.7972805720       27.8439475841      -17.9845763352  W2        5953            0.0000000000
     17860      5954  TIP3      OH2           -14.6692605720       21.5626875841       -2.0374763352  W2        5954            0.0000000000
     17861      5954  TIP3      H1            -14.5191705720       20.8338175841       -2.6395063352  W2        5954            0.0000000000
     17862      5954  TIP3      H2            -14.6670205720       22.3398575841       -2.5962563352  W2        5954            0.0000000000
     17863      5955  TIP3      OH2           -14.2566905720       19.9322675841       -4.5447363352  W2        5955            0.0000000000
     17864      5955  TIP3      H1            -13.7209405720       20.3839375841       -5.1968063352  W2        5955            0.0000000000
     17865      5955  TIP3      H2            -15.1087305720       19.8242475841       -4.9673263352  W2        5955            0.0000000000
     17866      5956  TIP3      OH2           -12.6748505720       25.3718875841       -4.3052163352  W2        5956            0.0000000000
     17867      5956  TIP3      H1            -11.9243705720       25.2156375841       -4.8784363352  W2        5956            0.0000000000
     17868      5956  TIP3      H2            -13.0140205720       26.2235475841       -4.5806663352  W2        5956            0.0000000000
     17869      5957  TIP3      OH2            -8.2592305720       23.1870675841        0.7233136648  W2        5957            0.0000000000
     17870      5957  TIP3      H1             -8.0671005720       22.2560075841        0.6117636648  W2        5957            0.0000000000
     17871      5957  TIP3      H2             -7.4016005720       23.6120175841        0.7128536648  W2        5957            0.0000000000
     17872      5958  TIP3      OH2            -6.9425105720       25.9755875841       -1.1994163352  W2        5958            0.0000000000
     17873      5958  TIP3      H1             -7.2240105720       26.6850475841       -1.7770363352  W2        5958            0.0000000000
     17874      5958  TIP3      H2             -6.0000805720       25.9028875841       -1.3502963352  W2        5958            0.0000000000
     17875      5959  TIP3      OH2           -16.1906305720       22.7610375841       -0.1259163352  W2        5959            0.0000000000
     17876      5959  TIP3      H1            -16.9577305720       22.2285175841       -0.3361563352  W2        5959            0.0000000000
     17877      5959  TIP3      H2            -15.5117305720       22.4510775841       -0.7252863352  W2        5959            0.0000000000
     17878      5960  TIP3      OH2           -13.4511405720       17.3888375841       -4.1133763352  W2        5960            0.0000000000
     17879      5960  TIP3      H1            -13.5491805720       18.3351575841       -4.2187563352  W2        5960            0.0000000000
     17880      5960  TIP3      H2            -14.1935205720       17.0162175841       -4.5890263352  W2        5960            0.0000000000
     17881      5961  TIP3      OH2           -12.1870905720       21.7103775841       -0.5495363352  W2        5961            0.0000000000
     17882      5961  TIP3      H1            -12.4225505720       21.4910475841        0.3519536648  W2        5961            0.0000000000
     17883      5961  TIP3      H2            -12.9704005720       21.5034975841       -1.0592863352  W2        5961            0.0000000000
     17884      5962  TIP3      OH2            -9.4714305720       20.8377275841       -1.4741863352  W2        5962            0.0000000000
     17885      5962  TIP3      H1            -10.4188905720       20.8696975841       -1.3418563352  W2        5962            0.0000000000
     17886      5962  TIP3      H2             -9.1587605720       20.2124375841       -0.8203663352  W2        5962            0.0000000000
     17887      5963  TIP3      OH2            -7.8372805720       19.4718375841        0.5310036648  W2        5963            0.0000000000
     17888      5963  TIP3      H1             -7.9341005720       18.5195675841        0.5251936648  W2        5963            0.0000000000
     17889      5963  TIP3      H2             -8.1589705720       19.7405175841        1.3915536648  W2        5963            0.0000000000
     17890      5964  TIP3      OH2           -18.0103505720       20.6814175841       -0.4214463352  W2        5964            0.0000000000
     17891      5964  TIP3      H1            -17.7986105720       19.9750275841       -1.0316963352  W2        5964            0.0000000000
     17892      5964  TIP3      H2            -18.1216005720       20.2440175841        0.4226736648  W2        5964            0.0000000000
     17893      5965  TIP3      OH2           -13.2293305720       16.6825775841       -1.4420963352  W2        5965            0.0000000000
     17894      5965  TIP3      H1            -12.5174905720       16.0427975841       -1.4561863352  W2        5965            0.0000000000
     17895      5965  TIP3      H2            -13.3302905720       16.9494075841       -2.3557863352  W2        5965            0.0000000000
     17896      5966  TIP3      OH2           -12.8755805720       18.3654175841        0.6115336648  W2        5966            0.0000000000
     17897      5966  TIP3      H1            -13.0073605720       17.8897975841       -0.2086163352  W2        5966            0.0000000000
     17898      5966  TIP3      H2            -13.4748405720       19.1097775841        0.5562436648  W2        5966            0.0000000000
     17899      5967  TIP3      OH2           -13.3293505720       35.2484475841      -16.2120663352  W2        5967            0.0000000000
     17900      5967  TIP3      H1            -12.3962805720       35.4063175841      -16.0682263352  W2        5967            0.0000000000
     17901      5967  TIP3      H2            -13.5934705720       35.9237475841      -16.8369163352  W2        5967            0.0000000000
     17902      5968  TIP3      OH2           -19.7608605720       29.8848275841      -16.7292563352  W2        5968            0.0000000000
     17903      5968  TIP3      H1            -18.8469405720       29.9637175841      -16.4558663352  W2        5968            0.0000000000
     17904      5968  TIP3      H2            -19.7535505720       29.1977875841      -17.3956963352  W2        5968            0.0000000000
     17905      5969  TIP3      OH2           -21.1118005720       35.2776775841      -11.6518663352  W2        5969            0.0000000000
     17906      5969  TIP3      H1            -21.7590905720       34.8158475841      -12.1847463352  W2        5969            0.0000000000
     17907      5969  TIP3      H2            -20.7573405720       34.6060075841      -11.0692463352  W2        5969            0.0000000000
     17908      5970  TIP3      OH2           -20.2418805720       33.3583775841       -9.8472463352  W2        5970            0.0000000000
     17909      5970  TIP3      H1            -20.5762005720       32.4781075841       -9.6752263352  W2        5970            0.0000000000
     17910      5970  TIP3      H2            -20.0196405720       33.7038775841       -8.9826863352  W2        5970            0.0000000000
     17911      5971  TIP3      OH2            -2.6934005720       34.1680175841       -6.8667663352  W2        5971            0.0000000000
     17912      5971  TIP3      H1             -2.7147305720       34.3528575841       -5.9278263352  W2        5971            0.0000000000
     17913      5971  TIP3      H2             -2.0027805720       34.7364175841       -7.2076263352  W2        5971            0.0000000000
     17914      5972  TIP3      OH2            -3.1301105720       33.7351275841       -3.9448563352  W2        5972            0.0000000000
     17915      5972  TIP3      H1             -3.6172405720       32.9995375841       -4.3161163352  W2        5972            0.0000000000
     17916      5972  TIP3      H2             -2.5808405720       33.3415175841       -3.2669163352  W2        5972            0.0000000000
     17917      5973  TIP3      OH2            -4.6793805720       29.5249375841        0.6931736648  W2        5973            0.0000000000
     17918      5973  TIP3      H1             -5.5452705720       29.4199075841        1.0874036648  W2        5973            0.0000000000
     17919      5973  TIP3      H2             -4.3027905720       30.2832675841        1.1396436648  W2        5973            0.0000000000
     17920      5974  TIP3      OH2            -3.3784105720       27.7813075841      -13.7925763352  W2        5974            0.0000000000
     17921      5974  TIP3      H1             -2.5282705720       28.2023975841      -13.6654163352  W2        5974            0.0000000000
     17922      5974  TIP3      H2             -3.3729005720       27.0413175841      -13.1854363352  W2        5974            0.0000000000
     17923      5975  TIP3      OH2            -2.9838505720       25.8350475841      -11.9690063352  W2        5975            0.0000000000
     17924      5975  TIP3      H1             -3.7103905720       25.3553075841      -11.5712463352  W2        5975            0.0000000000
     17925      5975  TIP3      H2             -2.4025205720       26.0405175841      -11.2368463352  W2        5975            0.0000000000
     17926      5976  TIP3      OH2            -3.2247305720       28.6197975841       -7.0212463352  W2        5976            0.0000000000
     17927      5976  TIP3      H1             -2.3913105720       28.2417975841       -7.3018863352  W2        5976            0.0000000000
     17928      5976  TIP3      H2             -3.1127005720       29.5629175841       -7.1403363352  W2        5976            0.0000000000
     17929      5977  TIP3      OH2            -4.7385005720       31.4975475841       -4.7144063352  W2        5977            0.0000000000
     17930      5977  TIP3      H1             -5.3859705720       31.8226975841       -4.0888863352  W2        5977            0.0000000000
     17931      5977  TIP3      H2             -5.2561005720       31.0573175841       -5.3885763352  W2        5977            0.0000000000
     17932      5978  TIP3      OH2            -2.7155405720       25.7358975841      -15.5778763352  W2        5978            0.0000000000
     17933      5978  TIP3      H1             -3.2374305720       26.0923075841      -16.2967863352  W2        5978            0.0000000000
     17934      5978  TIP3      H2             -2.7486205720       26.4106775841      -14.8997863352  W2        5978            0.0000000000
     17935      5979  TIP3      OH2            -4.3666405720       22.9754575841      -17.0271663352  W2        5979            0.0000000000
     17936      5979  TIP3      H1             -4.2702005720       23.6421575841      -17.7071963352  W2        5979            0.0000000000
     17937      5979  TIP3      H2             -4.5066805720       22.1600875841      -17.5086163352  W2        5979            0.0000000000
     17938      5980  TIP3      OH2            -5.1971705720       24.3556975841      -11.4061363352  W2        5980            0.0000000000
     17939      5980  TIP3      H1             -5.3472905720       23.4105575841      -11.4263563352  W2        5980            0.0000000000
     17940      5980  TIP3      H2             -5.5507205720       24.6368375841      -10.5622263352  W2        5980            0.0000000000
     17941      5981  TIP3      OH2           -20.1619305720       26.4339175841       -7.3957563352  W2        5981            0.0000000000
     17942      5981  TIP3      H1            -19.9776405720       26.3520875841       -8.3314663352  W2        5981            0.0000000000
     17943      5981  TIP3      H2            -19.3126405720       26.3096175841       -6.9721163352  W2        5981            0.0000000000
     17944      5982  TIP3      OH2            -4.3408805720       26.3260275841       -1.7673063352  W2        5982            0.0000000000
     17945      5982  TIP3      H1             -3.7581505720       25.5912575841       -1.5755863352  W2        5982            0.0000000000
     17946      5982  TIP3      H2             -3.7769505720       27.0980575841       -1.7207263352  W2        5982            0.0000000000
     17947      5983  TIP3      OH2            -2.8441705720       24.2286075841       -1.0827663352  W2        5983            0.0000000000
     17948      5983  TIP3      H1             -3.7075005720       23.8498175841       -1.2482963352  W2        5983            0.0000000000
     17949      5983  TIP3      H2             -2.2398005720       23.4900875841       -1.1571863352  W2        5983            0.0000000000
     17950      5984  TIP3      OH2            -5.1192605720       20.3834375841      -17.9096163352  W2        5984            0.0000000000
     17951      5984  TIP3      H1             -4.5086805720       20.0121175841      -17.2727963352  W2        5984            0.0000000000
     17952      5984  TIP3      H2             -5.9561105720       19.9621275841      -17.7136163352  W2        5984            0.0000000000
     17953      5985  TIP3      OH2            -5.4866905720       21.9382775841      -12.9436263352  W2        5985            0.0000000000
     17954      5985  TIP3      H1             -5.2069805720       21.0313175841      -12.8194563352  W2        5985            0.0000000000
     17955      5985  TIP3      H2             -4.7275205720       22.3724275841      -13.3327063352  W2        5985            0.0000000000
     17956      5986  TIP3      OH2            -4.8748605720       22.5200175841       -7.5077363352  W2        5986            0.0000000000
     17957      5986  TIP3      H1             -3.9420605720       22.7320075841       -7.5421363352  W2        5986            0.0000000000
     17958      5986  TIP3      H2             -5.1101105720       22.6212275841       -6.5854363352  W2        5986            0.0000000000
     17959      5987  TIP3      OH2            -4.8456705720       23.2565475841       -4.7317963352  W2        5987            0.0000000000
     17960      5987  TIP3      H1             -5.6885405720       23.5245875841       -4.3658163352  W2        5987            0.0000000000
     17961      5987  TIP3      H2             -4.4032405720       24.0787375841       -4.9426863352  W2        5987            0.0000000000
     17962      5988  TIP3      OH2           -20.5644505720       21.7044175841       -1.2548763352  W2        5988            0.0000000000
     17963      5988  TIP3      H1            -19.6449605720       21.5822475841       -1.0185663352  W2        5988            0.0000000000
     17964      5988  TIP3      H2            -21.0140005720       20.9543875841       -0.8655263352  W2        5988            0.0000000000
     17965      5989  TIP3      OH2            -2.5625105720       17.2365675841        0.6217036648  W2        5989            0.0000000000
     17966      5989  TIP3      H1             -2.2128105720       16.5829175841        0.0161736648  W2        5989            0.0000000000
     17967      5989  TIP3      H2             -2.4155605720       18.0739775841        0.1819636648  W2        5989            0.0000000000
     17968      5990  TIP3      OH2            -4.8732105720       19.2012075841      -12.8954263352  W2        5990            0.0000000000
     17969      5990  TIP3      H1             -4.6907105720       18.7523575841      -12.0699263352  W2        5990            0.0000000000
     17970      5990  TIP3      H2             -5.4729205720       18.6166475841      -13.3589663352  W2        5990            0.0000000000
     17971      5991  TIP3      OH2           -19.3432005720       20.0165775841       -8.3635863352  W2        5991            0.0000000000
     17972      5991  TIP3      H1            -18.8980405720       19.2248275841       -8.0616163352  W2        5991            0.0000000000
     17973      5991  TIP3      H2            -18.8769005720       20.7330975841       -7.9330263352  W2        5991            0.0000000000
     17974      5992  TIP3      OH2           -21.0391705720       23.0158775841       -7.2945663352  W2        5992            0.0000000000
     17975      5992  TIP3      H1            -20.5471905720       22.7949275841       -8.0853663352  W2        5992            0.0000000000
     17976      5992  TIP3      H2            -20.6770805720       23.8562175841       -7.0136163352  W2        5992            0.0000000000
     17977      5993  TIP3      OH2            -3.0427905720       19.3460275841       -1.0291663352  W2        5993            0.0000000000
     17978      5993  TIP3      H1             -3.9602205720       19.6167375841       -1.0648163352  W2        5993            0.0000000000
     17979      5993  TIP3      H2             -2.9198505720       18.8108675841       -1.8131963352  W2        5993            0.0000000000
     17980      5994  TIP3      OH2            -3.0065905720       19.2690175841      -16.3673963352  W2        5994            0.0000000000
     17981      5994  TIP3      H1             -2.5943305720       18.5475875841      -16.8425963352  W2        5994            0.0000000000
     17982      5994  TIP3      H2             -2.3249405720       19.9384775841      -16.3089663352  W2        5994            0.0000000000
     17983      5995  TIP3      OH2           -20.7255205720       19.2737875841      -13.2403263352  W2        5995            0.0000000000
     17984      5995  TIP3      H1            -21.6506805720       19.4824475841      -13.3697763352  W2        5995            0.0000000000
     17985      5995  TIP3      H2            -20.2715305720       19.7578675841      -13.9300963352  W2        5995            0.0000000000
     17986      5996  TIP3      OH2            -5.9548005720       34.2579575841      -11.2945863352  W2        5996            0.0000000000
     17987      5996  TIP3      H1             -5.3025105720       33.9101675841      -11.9026763352  W2        5996            0.0000000000
     17988      5996  TIP3      H2             -5.4444205720       34.7462775841      -10.6486163352  W2        5996            0.0000000000
     17989      5997  TIP3      OH2           -20.7619805720       18.0116875841       -4.8960763352  W2        5997            0.0000000000
     17990      5997  TIP3      H1            -21.4269305720       17.7657175841       -4.2529863352  W2        5997            0.0000000000
     17991      5997  TIP3      H2            -21.2048505720       18.6337275841       -5.4732763352  W2        5997            0.0000000000
     17992      5998  TIP3      OH2           -18.5700505720       31.1870975841       -0.7514963352  W2        5998            0.0000000000
     17993      5998  TIP3      H1            -19.3908005720       31.3617475841       -1.2120263352  W2        5998            0.0000000000
     17994      5998  TIP3      H2            -18.8222705720       31.1135675841        0.1689436648  W2        5998            0.0000000000
     17995      5999  TIP3      OH2           -15.6157605720       32.1612175841       -4.4930963352  W2        5999            0.0000000000
     17996      5999  TIP3      H1            -16.0406505720       32.9710675841       -4.7756363352  W2        5999            0.0000000000
     17997      5999  TIP3      H2            -14.7114805720       32.2466275841       -4.7951163352  W2        5999            0.0000000000
     17998      6000  TIP3      OH2           -11.3046205720       33.5602175841       -1.5337263352  W2        6000            0.0000000000
     17999      6000  TIP3      H1            -11.1198705720       33.2268275841       -0.6556963352  W2        6000            0.0000000000
     18000      6000  TIP3      H2            -10.4581705720       33.8700775841       -1.8558063352  W2        6000            0.0000000000
     18001      6001  TIP3      OH2            -8.9595805720       34.8461075841       -2.2895863352  W2        6001            0.0000000000
     18002      6001  TIP3      H1             -8.2826905720       34.2133375841       -2.5296663352  W2        6001            0.0000000000
     18003      6001  TIP3      H2             -8.6377005720       35.2471575841       -1.4822563352  W2        6001            0.0000000000
     18004      6002  TIP3      OH2            -4.0422005720       17.4356575841       -3.2100863352  W2        6002            0.0000000000
     18005      6002  TIP3      H1             -4.8548505720       17.7606875841       -3.5976163352  W2        6002            0.0000000000
     18006      6002  TIP3      H2             -3.8093505720       16.6755075841       -3.7431763352  W2        6002            0.0000000000
     18007      6003  TIP3      OH2           -18.2140905720       35.4176075841       -4.4455663352  W2        6003            0.0000000000
     18008      6003  TIP3      H1            -18.9344505720       35.8577075841       -4.8967963352  W2        6003            0.0000000000
     18009      6003  TIP3      H2            -18.5796905720       35.1670775841       -3.5971663352  W2        6003            0.0000000000
     18010      6004  TIP3      OH2           -15.7468305720       35.0179975841       -5.4158463352  W2        6004            0.0000000000
     18011      6004  TIP3      H1            -16.6116105720       35.0898475841       -5.0118363352  W2        6004            0.0000000000
     18012      6004  TIP3      H2            -15.8019305720       35.5647275841       -6.1995963352  W2        6004            0.0000000000
     18013      6005  TIP3      OH2           -11.0362705720       34.9058875841       -6.2402463352  W2        6005            0.0000000000
     18014      6005  TIP3      H1            -11.4928705720       35.4348575841       -6.8944063352  W2        6005            0.0000000000
     18015      6005  TIP3      H2            -10.8734705720       35.5090275841       -5.5150163352  W2        6005            0.0000000000
     18016      6006  TIP3      OH2            -8.7086405720       33.7838475841       -5.2952163352  W2        6006            0.0000000000
     18017      6006  TIP3      H1             -9.6132705720       33.9488675841       -5.5610063352  W2        6006            0.0000000000
     18018      6006  TIP3      H2             -8.2797805720       34.6370675841       -5.3608763352  W2        6006            0.0000000000
     18019      6007  TIP3      OH2            -6.1044505720       35.3537575841       -5.0004363352  W2        6007            0.0000000000
     18020      6007  TIP3      H1             -6.2862505720       36.2696475841       -5.2109463352  W2        6007            0.0000000000
     18021      6007  TIP3      H2             -5.9276705720       34.9434675841       -5.8469763352  W2        6007            0.0000000000
     18022      6008  TIP3      OH2           -18.7992805720       34.0408575841       -7.5353863352  W2        6008            0.0000000000
     18023      6008  TIP3      H1            -18.8176805720       33.6153675841       -6.6781563352  W2        6008            0.0000000000
     18024      6008  TIP3      H2            -17.9944905720       33.7223575841       -7.9441663352  W2        6008            0.0000000000
     18025      6009  TIP3      OH2           -16.6579705720       32.7507275841       -8.8803963352  W2        6009            0.0000000000
     18026      6009  TIP3      H1            -16.8769005720       31.8344675841       -8.7107963352  W2        6009            0.0000000000
     18027      6009  TIP3      H2            -15.8337505720       32.8907675841       -8.4142563352  W2        6009            0.0000000000
     18028      6010  TIP3      OH2           -14.1207205720       33.2206575841       -8.0315963352  W2        6010            0.0000000000
     18029      6010  TIP3      H1            -13.9081505720       32.3325575841       -8.3185063352  W2        6010            0.0000000000
     18030      6010  TIP3      H2            -14.0562105720       33.1864275841       -7.0771963352  W2        6010            0.0000000000
     18031      6011  TIP3      OH2           -10.6123505720       18.8847175841       -8.8872663352  W2        6011            0.0000000000
     18032      6011  TIP3      H1            -11.2866705720       18.2552775841       -8.6316863352  W2        6011            0.0000000000
     18033      6011  TIP3      H2            -10.0484305720       18.4006075841       -9.4904763352  W2        6011            0.0000000000
     18034      6012  TIP3      OH2            -5.4696305720       16.9921175841       -8.7745563352  W2        6012            0.0000000000
     18035      6012  TIP3      H1             -4.8658705720       17.5396575841       -9.2764563352  W2        6012            0.0000000000
     18036      6012  TIP3      H2             -6.3394305720       17.3111575841       -9.0151463352  W2        6012            0.0000000000
     18037      6013  TIP3      OH2            -3.7425905720       18.1309875841      -10.4414663352  W2        6013            0.0000000000
     18038      6013  TIP3      H1             -3.1308405720       17.6165575841      -10.9681063352  W2        6013            0.0000000000
     18039      6013  TIP3      H2             -3.3602505720       19.0081975841      -10.4180263352  W2        6013            0.0000000000
     18040      6014  TIP3      OH2           -18.2856005720       17.5187475841      -11.0652763352  W2        6014            0.0000000000
     18041      6014  TIP3      H1            -19.0626205720       17.2842375841      -11.5726863352  W2        6014            0.0000000000
     18042      6014  TIP3      H2            -17.7552405720       16.7219575841      -11.0564763352  W2        6014            0.0000000000
     18043      6015  TIP3      OH2           -19.4492605720       17.3165575841      -15.2616663352  W2        6015            0.0000000000
     18044      6015  TIP3      H1            -19.0101905720       17.9276075841      -15.8533163352  W2        6015            0.0000000000
     18045      6015  TIP3      H2            -20.0830205720       17.8549675841      -14.7876663352  W2        6015            0.0000000000
     18046      6016  TIP3      OH2           -13.7063405720       17.4454575841      -11.2519663352  W2        6016            0.0000000000
     18047      6016  TIP3      H1            -12.8320005720       17.8338875841      -11.2815363352  W2        6016            0.0000000000
     18048      6016  TIP3      H2            -13.8422605720       17.2302375841      -10.3292463352  W2        6016            0.0000000000
     18049      6017  TIP3      OH2            -8.1495005720       17.4754375841       -9.6027963352  W2        6017            0.0000000000
     18050      6017  TIP3      H1             -8.0733405720       17.5705975841      -10.5521963352  W2        6017            0.0000000000
     18051      6017  TIP3      H2             -8.4245805720       16.5677275841       -9.4738863352  W2        6017            0.0000000000
     18052      6018  TIP3      OH2            -6.7962405720       17.5012175841      -13.9102963352  W2        6018            0.0000000000
     18053      6018  TIP3      H1             -7.4991305720       18.1161375841      -14.1201563352  W2        6018            0.0000000000
     18054      6018  TIP3      H2             -7.2411005720       16.6638875841      -13.7792063352  W2        6018            0.0000000000
     18055      6019  TIP3      OH2           -19.5483105720       33.2647775841      -14.3641563352  W2        6019            0.0000000000
     18056      6019  TIP3      H1            -20.2333205720       33.2266675841      -15.0316463352  W2        6019            0.0000000000
     18057      6019  TIP3      H2            -19.5445905720       34.1775375841      -14.0759463352  W2        6019            0.0000000000
     18058      6020  TIP3      OH2           -17.5883505720       19.2327075841      -16.8192563352  W2        6020            0.0000000000
     18059      6020  TIP3      H1            -17.0970105720       18.6029475841      -17.3467063352  W2        6020            0.0000000000
     18060      6020  TIP3      H2            -16.9647205720       19.5286475841      -16.1561363352  W2        6020            0.0000000000
     18061      6021  TIP3      OH2           -12.5623405720       19.5258575841      -14.3622063352  W2        6021            0.0000000000
     18062      6021  TIP3      H1            -12.3842105720       18.8791775841      -13.6793463352  W2        6021            0.0000000000
     18063      6021  TIP3      H2            -12.6157205720       20.3596275841      -13.8950963352  W2        6021            0.0000000000
     18064      6022  TIP3      OH2           -10.6839605720       34.4742675841      -15.9665363352  W2        6022            0.0000000000
     18065      6022  TIP3      H1             -9.8179405720       34.8410075841      -16.1447163352  W2        6022            0.0000000000
     18066      6022  TIP3      H2            -10.9306805720       34.0350675841      -16.7804563352  W2        6022            0.0000000000
     18067      6023  TIP3      OH2            -3.9750005720       34.0372975841      -13.2874263352  W2        6023            0.0000000000
     18068      6023  TIP3      H1             -4.1692905720       33.2895075841      -13.8524663352  W2        6023            0.0000000000
     18069      6023  TIP3      H2             -4.0139905720       34.7953075841      -13.8706363352  W2        6023            0.0000000000
     18070      6024  TIP3      OH2           -18.3278005720       18.0329375841       -1.5476563352  W2        6024            0.0000000000
     18071      6024  TIP3      H1            -18.6939805720       17.2671975841       -1.1051863352  W2        6024            0.0000000000
     18072      6024  TIP3      H2            -17.4149505720       18.0619575841       -1.2611463352  W2        6024            0.0000000000
     18073      6025  TIP3      OH2           -16.3547205720       17.3833775841       -0.0119463352  W2        6025            0.0000000000
     18074      6025  TIP3      H1            -15.4563605720       17.1093975841       -0.1966063352  W2        6025            0.0000000000
     18075      6025  TIP3      H2            -16.7414105720       16.6409775841        0.4523136648  W2        6025            0.0000000000
     18076      6026  TIP3      OH2           -17.7301905720       34.1848575841      -17.3389463352  W2        6026            0.0000000000
     18077      6026  TIP3      H1            -17.9977305720       34.4711475841      -16.4656363352  W2        6026            0.0000000000
     18078      6026  TIP3      H2            -16.9589305720       33.6387775841      -17.1866963352  W2        6026            0.0000000000
     18079      6027  TIP3      OH2            -7.9334905720       16.7159075841        0.1703336648  W2        6027            0.0000000000
     18080      6027  TIP3      H1             -7.8567705720       16.2899775841        1.0241036648  W2        6027            0.0000000000
     18081      6027  TIP3      H2             -7.0398305720       16.7293775841       -0.1723163352  W2        6027            0.0000000000
     18082      6028  TIP3      OH2            -4.7573805720       32.7885375841       -1.1372463352  W2        6028            0.0000000000
     18083      6028  TIP3      H1             -5.5391905720       32.6023375841       -1.6571863352  W2        6028            0.0000000000
     18084      6028  TIP3      H2             -4.8293905720       33.7179675841       -0.9199963352  W2        6028            0.0000000000
     18085      6029  TIP3      OH2             9.6486594280       26.6749775841      -11.1065263352  W2        6029            0.0000000000
     18086      6029  TIP3      H1              9.7377694280       27.6187975841      -11.2388163352  W2        6029            0.0000000000
     18087      6029  TIP3      H2              9.0104194280       26.3996175841      -11.7645863352  W2        6029            0.0000000000
     18088      6030  TIP3      OH2             8.5817894280       25.9300475841       -7.6877063352  W2        6030            0.0000000000
     18089      6030  TIP3      H1              8.5435394280       25.2836775841       -6.9827463352  W2        6030            0.0000000000
     18090      6030  TIP3      H2              8.2594394280       25.4634875841       -8.4588363352  W2        6030            0.0000000000
     18091      6031  TIP3      OH2             0.9502894280       25.5442575841       -6.0947163352  W2        6031            0.0000000000
     18092      6031  TIP3      H1              0.9914994280       24.9185875841       -5.3714763352  W2        6031            0.0000000000
     18093      6031  TIP3      H2              1.6530594280       26.1681175841       -5.9126763352  W2        6031            0.0000000000
     18094      6032  TIP3      OH2            12.2878094280       28.8690875841       -9.3861963352  W2        6032            0.0000000000
     18095      6032  TIP3      H1             11.8470794280       28.1486875841       -8.9356363352  W2        6032            0.0000000000
     18096      6032  TIP3      H2             12.2747794280       29.5898075841       -8.7564263352  W2        6032            0.0000000000
     18097      6033  TIP3      OH2             1.8735994280       29.9941475841       -7.5598063352  W2        6033            0.0000000000
     18098      6033  TIP3      H1              1.5041194280       29.1921975841       -7.9293763352  W2        6033            0.0000000000
     18099      6033  TIP3      H2              2.8147094280       29.8256375841       -7.5134663352  W2        6033            0.0000000000
     18100      6034  TIP3      OH2            -1.5163505720       23.6544075841      -12.1669263352  W2        6034            0.0000000000
     18101      6034  TIP3      H1             -1.9640105720       24.5002775841      -12.1852763352  W2        6034            0.0000000000
     18102      6034  TIP3      H2             -2.0772305720       23.0748275841      -12.6824163352  W2        6034            0.0000000000
     18103      6035  TIP3      OH2            -0.8057405720       25.8163675841      -10.0411263352  W2        6035            0.0000000000
     18104      6035  TIP3      H1             -0.5923905720       25.0465275841       -9.5138263352  W2        6035            0.0000000000
     18105      6035  TIP3      H2             -0.0679805720       25.9060375841      -10.6443663352  W2        6035            0.0000000000
     18106      6036  TIP3      OH2             9.3993594280       33.9732575841       -9.1741563352  W2        6036            0.0000000000
     18107      6036  TIP3      H1             10.0189994280       33.2967275841       -9.4472363352  W2        6036            0.0000000000
     18108      6036  TIP3      H2              9.1910994280       33.7553375841       -8.2656663352  W2        6036            0.0000000000
     18109      6037  TIP3      OH2             6.9712294280       28.3621875841       -7.2816063352  W2        6037            0.0000000000
     18110      6037  TIP3      H1              7.2750194280       27.6763275841       -7.8761963352  W2        6037            0.0000000000
     18111      6037  TIP3      H2              7.6926294280       28.4810575841       -6.6638063352  W2        6037            0.0000000000
     18112      6038  TIP3      OH2            15.6342094280       19.9637175841       -6.4209863352  W2        6038            0.0000000000
     18113      6038  TIP3      H1             15.6834294280       20.5738375841       -5.6850763352  W2        6038            0.0000000000
     18114      6038  TIP3      H2             16.0597194280       20.4248075841       -7.1438763352  W2        6038            0.0000000000
     18115      6039  TIP3      OH2            10.1119294280       22.7564275841       -6.9541263352  W2        6039            0.0000000000
     18116      6039  TIP3      H1             10.2545194280       21.8101275841       -6.9339663352  W2        6039            0.0000000000
     18117      6039  TIP3      H2             10.0058294280       22.9634075841       -7.8826363352  W2        6039            0.0000000000
     18118      6040  TIP3      OH2             3.2667594280       20.8580675841       -9.6816463352  W2        6040            0.0000000000
     18119      6040  TIP3      H1              3.3098694280       21.7179175841      -10.1000163352  W2        6040            0.0000000000
     18120      6040  TIP3      H2              2.8091694280       20.3055375841      -10.3153263352  W2        6040            0.0000000000
     18121      6041  TIP3      OH2            10.9890294280       20.9886275841      -11.2808163352  W2        6041            0.0000000000
     18122      6041  TIP3      H1             11.6354594280       20.6599475841      -10.6560563352  W2        6041            0.0000000000
     18123      6041  TIP3      H2             11.4989694280       21.5065275841      -11.9036763352  W2        6041            0.0000000000
     18124      6042  TIP3      OH2            -0.1130905720       23.2546475841       -8.9195063352  W2        6042            0.0000000000
     18125      6042  TIP3      H1              0.5405694280       22.7048175841       -8.4874963352  W2        6042            0.0000000000
     18126      6042  TIP3      H2             -0.0891605720       22.9805475841       -9.8363063352  W2        6042            0.0000000000
     18127      6043  TIP3      OH2             5.0433594280       24.8047775841       -9.7043563352  W2        6043            0.0000000000
     18128      6043  TIP3      H1              5.6594594280       24.2783175841       -9.1949563352  W2        6043            0.0000000000
     18129      6043  TIP3      H2              4.4572394280       24.1646475841      -10.1079963352  W2        6043            0.0000000000
     18130      6044  TIP3      OH2            16.0256694280       21.4416375841       -4.1850063352  W2        6044            0.0000000000
     18131      6044  TIP3      H1             15.3371294280       22.0997075841       -4.2803463352  W2        6044            0.0000000000
     18132      6044  TIP3      H2             16.0411294280       21.2444275841       -3.2484663352  W2        6044            0.0000000000
     18133      6045  TIP3      OH2             2.0769494280       19.7759075841       -5.6075663352  W2        6045            0.0000000000
     18134      6045  TIP3      H1              1.8581194280       20.3059675841       -6.3739663352  W2        6045            0.0000000000
     18135      6045  TIP3      H2              1.4090394280       20.0024575841       -4.9604263352  W2        6045            0.0000000000
     18136      6046  TIP3      OH2             9.4459294280       29.2760175841      -12.0636563352  W2        6046            0.0000000000
     18137      6046  TIP3      H1              9.1504394280       28.9532475841      -12.9149663352  W2        6046            0.0000000000
     18138      6046  TIP3      H2              9.1217094280       30.1756875841      -12.0223963352  W2        6046            0.0000000000
     18139      6047  TIP3      OH2             4.6460894280       27.4514775841       -5.3201963352  W2        6047            0.0000000000
     18140      6047  TIP3      H1              3.9059994280       28.0496275841       -5.2166763352  W2        6047            0.0000000000
     18141      6047  TIP3      H2              5.3600394280       28.0054375841       -5.6358363352  W2        6047            0.0000000000
     18142      6048  TIP3      OH2            12.7528694280       20.2795575841       -9.3002263352  W2        6048            0.0000000000
     18143      6048  TIP3      H1             12.5376694280       19.5138975841       -8.7676263352  W2        6048            0.0000000000
     18144      6048  TIP3      H2             13.4086094280       20.7520175841       -8.7873763352  W2        6048            0.0000000000
     18145      6049  TIP3      OH2             1.6706794280       21.6680875841       -7.6553463352  W2        6049            0.0000000000
     18146      6049  TIP3      H1              2.2843094280       22.3008475841       -7.2821063352  W2        6049            0.0000000000
     18147      6049  TIP3      H2              2.1827494280       21.1955875841       -8.3116563352  W2        6049            0.0000000000
     18148      6050  TIP3      OH2             3.0535194280       29.4157775841       -4.5330463352  W2        6050            0.0000000000
     18149      6050  TIP3      H1              3.0482794280       30.2951275841       -4.9111163352  W2        6050            0.0000000000
     18150      6050  TIP3      H2              2.1999294280       29.3321875841       -4.1080563352  W2        6050            0.0000000000
     18151      6051  TIP3      OH2            -0.8253905720       29.0865675841      -13.7511163352  W2        6051            0.0000000000
     18152      6051  TIP3      H1             -1.0973005720       29.3156675841      -14.6398263352  W2        6051            0.0000000000
     18153      6051  TIP3      H2             -0.7798205720       29.9244475841      -13.2905863352  W2        6051            0.0000000000
     18154      6052  TIP3      OH2            12.7995794280       30.7081575841       -7.0382663352  W2        6052            0.0000000000
     18155      6052  TIP3      H1             11.8579494280       30.7665475841       -6.8765763352  W2        6052            0.0000000000
     18156      6052  TIP3      H2             13.0761894280       31.6142075841       -7.1752963352  W2        6052            0.0000000000
     18157      6053  TIP3      OH2            13.1002794280       18.9946875841       -5.6208763352  W2        6053            0.0000000000
     18158      6053  TIP3      H1             12.3641994280       19.6053975841       -5.6587463352  W2        6053            0.0000000000
     18159      6053  TIP3      H2             13.7836794280       19.4095875841       -6.1472363352  W2        6053            0.0000000000
     18160      6054  TIP3      OH2             6.1034194280       17.0814175841       -8.1550763352  W2        6054            0.0000000000
     18161      6054  TIP3      H1              5.9858394280       16.1330175841       -8.2092463352  W2        6054            0.0000000000
     18162      6054  TIP3      H2              5.2484294280       17.4140275841       -7.8819663352  W2        6054            0.0000000000
     18163      6055  TIP3      OH2            11.0516994280       32.4895075841      -10.4131063352  W2        6055            0.0000000000
     18164      6055  TIP3      H1             11.4769294280       31.7822975841      -10.8981463352  W2        6055            0.0000000000
     18165      6055  TIP3      H2             11.3686994280       33.2907775841      -10.8298863352  W2        6055            0.0000000000
     18166      6056  TIP3      OH2            12.2113494280       30.3903575841      -11.9044463352  W2        6056            0.0000000000
     18167      6056  TIP3      H1             11.9538294280       29.7003675841      -12.5158563352  W2        6056            0.0000000000
     18168      6056  TIP3      H2             12.2824294280       29.9474775841      -11.0588563352  W2        6056            0.0000000000
     18169      6057  TIP3      OH2            13.8973694280       28.9570275841       -3.4270963352  W2        6057            0.0000000000
     18170      6057  TIP3      H1             14.0369994280       28.3652775841       -4.1663963352  W2        6057            0.0000000000
     18171      6057  TIP3      H2             14.0646494280       29.8296175841       -3.7832163352  W2        6057            0.0000000000
     18172      6058  TIP3      OH2             8.3699094280       25.9189775841      -13.6544963352  W2        6058            0.0000000000
     18173      6058  TIP3      H1              7.6584594280       26.4539475841      -14.0064463352  W2        6058            0.0000000000
     18174      6058  TIP3      H2              9.0608694280       25.9741875841      -14.3146063352  W2        6058            0.0000000000
     18175      6059  TIP3      OH2             8.4238294280       24.3764075841      -16.6159963352  W2        6059            0.0000000000
     18176      6059  TIP3      H1              9.1248194280       24.3990975841      -15.9645963352  W2        6059            0.0000000000
     18177      6059  TIP3      H2              8.7261194280       23.7483775841      -17.2720663352  W2        6059            0.0000000000
     18178      6060  TIP3      OH2            15.7392994280       25.2968275841       -5.3610563352  W2        6060            0.0000000000
     18179      6060  TIP3      H1             15.0867094280       25.9913875841       -5.2719663352  W2        6060            0.0000000000
     18180      6060  TIP3      H2             16.2043294280       25.5069175841       -6.1708963352  W2        6060            0.0000000000
     18181      6061  TIP3      OH2            11.7756794280       26.1283075841      -12.7029063352  W2        6061            0.0000000000
     18182      6061  TIP3      H1             11.0437794280       26.3566775841      -12.1298463352  W2        6061            0.0000000000
     18183      6061  TIP3      H2             12.2228994280       25.4145775841      -12.2481563352  W2        6061            0.0000000000
     18184      6062  TIP3      OH2            11.6730294280       24.3025675841       -3.6352063352  W2        6062            0.0000000000
     18185      6062  TIP3      H1             11.7529394280       25.0660075841       -3.0633563352  W2        6062            0.0000000000
     18186      6062  TIP3      H2             11.0717994280       24.5818075841       -4.3256963352  W2        6062            0.0000000000
     18187      6063  TIP3      OH2             3.4210494280       26.7589275841      -10.8204063352  W2        6063            0.0000000000
     18188      6063  TIP3      H1              3.0905694280       26.3882675841      -11.6387063352  W2        6063            0.0000000000
     18189      6063  TIP3      H2              4.0094594280       26.0883275841      -10.4735763352  W2        6063            0.0000000000
     18190      6064  TIP3      OH2             4.7877994280       30.1869875841       -8.1391863352  W2        6064            0.0000000000
     18191      6064  TIP3      H1              4.6929294280       29.6082975841       -8.8957263352  W2        6064            0.0000000000
     18192      6064  TIP3      H2              5.5171594280       29.8155575841       -7.6429063352  W2        6064            0.0000000000
     18193      6065  TIP3      OH2             3.7875994280       25.5274875841       -7.1869063352  W2        6065            0.0000000000
     18194      6065  TIP3      H1              4.3528494280       25.6489075841       -7.9497863352  W2        6065            0.0000000000
     18195      6065  TIP3      H2              4.1064894280       26.1649875841       -6.5480563352  W2        6065            0.0000000000
     18196      6066  TIP3      OH2            10.0968194280       31.0306775841       -6.4528563352  W2        6066            0.0000000000
     18197      6066  TIP3      H1              9.8564794280       31.6929875841       -5.8049363352  W2        6066            0.0000000000
     18198      6066  TIP3      H2              9.8986394280       30.1961975841       -6.0278963352  W2        6066            0.0000000000
     18199      6067  TIP3      OH2             4.6676694280       29.9267575841       -2.4697163352  W2        6067            0.0000000000
     18200      6067  TIP3      H1              4.3564194280       30.7090775841       -2.0143963352  W2        6067            0.0000000000
     18201      6067  TIP3      H2              4.0176894280       29.7736675841       -3.1555163352  W2        6067            0.0000000000
     18202      6068  TIP3      OH2            10.6466294280       25.2905975841      -15.0177863352  W2        6068            0.0000000000
     18203      6068  TIP3      H1             11.2261794280       25.4406275841      -14.2708963352  W2        6068            0.0000000000
     18204      6068  TIP3      H2             11.0606294280       25.7613375841      -15.7411463352  W2        6068            0.0000000000
     18205      6069  TIP3      OH2             1.5876594280       26.1248675841       -3.2411463352  W2        6069            0.0000000000
     18206      6069  TIP3      H1              1.6579794280       26.7755475841       -2.5426463352  W2        6069            0.0000000000
     18207      6069  TIP3      H2              0.6968794280       26.2276175841       -3.5760563352  W2        6069            0.0000000000
     18208      6070  TIP3      OH2             8.3731194280       32.0274475841      -11.5824763352  W2        6070            0.0000000000
     18209      6070  TIP3      H1              8.8468794280       32.3230775841      -10.8050563352  W2        6070            0.0000000000
     18210      6070  TIP3      H2              7.8100494280       32.7656075841      -11.8155163352  W2        6070            0.0000000000
     18211      6071  TIP3      OH2             2.9072594280       31.9982575841       -1.7063363352  W2        6071            0.0000000000
     18212      6071  TIP3      H1              2.9147894280       31.8622275841       -2.6537863352  W2        6071            0.0000000000
     18213      6071  TIP3      H2              1.9912994280       31.8810675841       -1.4543363352  W2        6071            0.0000000000
     18214      6072  TIP3      OH2            14.3454694280       17.0406375841      -15.2048163352  W2        6072            0.0000000000
     18215      6072  TIP3      H1             13.4455394280       17.1795375841      -14.9097563352  W2        6072            0.0000000000
     18216      6072  TIP3      H2             14.5973094280       17.8720975841      -15.6066463352  W2        6072            0.0000000000
     18217      6073  TIP3      OH2             2.4113194280       25.8283575841      -13.2311263352  W2        6073            0.0000000000
     18218      6073  TIP3      H1              2.1194494280       26.5965275841      -13.7219963352  W2        6073            0.0000000000
     18219      6073  TIP3      H2              1.7368394280       25.1689775841      -13.3939863352  W2        6073            0.0000000000
     18220      6074  TIP3      OH2            15.5346094280       31.4068775841      -16.8284263352  W2        6074            0.0000000000
     18221      6074  TIP3      H1             15.6079594280       32.3458975841      -16.6578963352  W2        6074            0.0000000000
     18222      6074  TIP3      H2             16.4401194280       31.1017375841      -16.8846963352  W2        6074            0.0000000000
     18223      6075  TIP3      OH2            -1.4956705720       28.1912775841       -4.4161463352  W2        6075            0.0000000000
     18224      6075  TIP3      H1             -1.9968305720       28.1632175841       -5.2311763352  W2        6075            0.0000000000
     18225      6075  TIP3      H2             -1.4903005720       27.2855975841       -4.1064163352  W2        6075            0.0000000000
     18226      6076  TIP3      OH2            -1.7454005720       30.9716575841       -7.5321263352  W2        6076            0.0000000000
     18227      6076  TIP3      H1             -0.7993405720       30.8273575841       -7.5511763352  W2        6076            0.0000000000
     18228      6076  TIP3      H2             -1.8577705720       31.7559375841       -6.9950063352  W2        6076            0.0000000000
     18229      6077  TIP3      OH2            16.4524494280       31.6376275841       -1.8497563352  W2        6077            0.0000000000
     18230      6077  TIP3      H1             16.4031294280       30.6824375841       -1.8869963352  W2        6077            0.0000000000
     18231      6077  TIP3      H2             15.6256794280       31.9051575841       -1.4483763352  W2        6077            0.0000000000
     18232      6078  TIP3      OH2             7.4308494280       31.2115475841       -2.9736163352  W2        6078            0.0000000000
     18233      6078  TIP3      H1              7.5183094280       32.0380075841       -2.4987063352  W2        6078            0.0000000000
     18234      6078  TIP3      H2              6.5673594280       30.8819275841       -2.7246863352  W2        6078            0.0000000000
     18235      6079  TIP3      OH2             7.8454294280       34.9839175841      -13.1675563352  W2        6079            0.0000000000
     18236      6079  TIP3      H1              7.7700294280       34.8626375841      -14.1140363352  W2        6079            0.0000000000
     18237      6079  TIP3      H2              7.8782994280       35.9331875841      -13.0490963352  W2        6079            0.0000000000
     18238      6080  TIP3      OH2             1.4988094280       33.7726175841      -11.3866563352  W2        6080            0.0000000000
     18239      6080  TIP3      H1              1.6508494280       33.4246575841      -10.5080063352  W2        6080            0.0000000000
     18240      6080  TIP3      H2              0.6478494280       33.4163475841      -11.6419363352  W2        6080            0.0000000000
     18241      6081  TIP3      OH2            10.9470294280       34.1379375841      -16.1653163352  W2        6081            0.0000000000
     18242      6081  TIP3      H1             11.3218694280       33.3935475841      -16.6360563352  W2        6081            0.0000000000
     18243      6081  TIP3      H2             10.9513994280       33.8679975841      -15.2469863352  W2        6081            0.0000000000
     18244      6082  TIP3      OH2            10.6158394280       34.0636475841      -13.4160963352  W2        6082            0.0000000000
     18245      6082  TIP3      H1              9.6808194280       34.1638375841      -13.2373963352  W2        6082            0.0000000000
     18246      6082  TIP3      H2             10.8960294280       33.3542475841      -12.8377763352  W2        6082            0.0000000000
     18247      6083  TIP3      OH2            13.6044294280       23.1308775841       -1.3695363352  W2        6083            0.0000000000
     18248      6083  TIP3      H1             13.1971094280       23.6114375841       -2.0902063352  W2        6083            0.0000000000
     18249      6083  TIP3      H2             13.6449994280       22.2254775841       -1.6774563352  W2        6083            0.0000000000
     18250      6084  TIP3      OH2             0.7533794280       29.5148175841       -3.3728663352  W2        6084            0.0000000000
     18251      6084  TIP3      H1              0.9695094280       29.1533775841       -2.5132863352  W2        6084            0.0000000000
     18252      6084  TIP3      H2             -0.1021505720       29.1401975841       -3.5825163352  W2        6084            0.0000000000
     18253      6085  TIP3      OH2             3.3721794280       17.9848675841       -7.3774463352  W2        6085            0.0000000000
     18254      6085  TIP3      H1              2.5105494280       17.8976875841       -7.7851563352  W2        6085            0.0000000000
     18255      6085  TIP3      H2              3.3497494280       18.8408775841       -6.9496863352  W2        6085            0.0000000000
     18256      6086  TIP3      OH2             8.0349594280       17.7069075841       -4.0027463352  W2        6086            0.0000000000
     18257      6086  TIP3      H1              8.4552694280       17.2916175841       -3.2496863352  W2        6086            0.0000000000
     18258      6086  TIP3      H2              7.1019194280       17.5282375841       -3.8855463352  W2        6086            0.0000000000
     18259      6087  TIP3      OH2            11.3614494280       21.4624275841       -3.1492963352  W2        6087            0.0000000000
     18260      6087  TIP3      H1             10.8473994280       21.3366475841       -2.3516963352  W2        6087            0.0000000000
     18261      6087  TIP3      H2             11.2059194280       22.3747375841       -3.3936763352  W2        6087            0.0000000000
     18262      6088  TIP3      OH2            12.1239394280       26.3234275841      -17.3879963352  W2        6088            0.0000000000
     18263      6088  TIP3      H1             12.1660194280       26.1008175841      -18.3179963352  W2        6088            0.0000000000
     18264      6088  TIP3      H2             12.9731494280       26.7221375841      -17.1980063352  W2        6088            0.0000000000
     18265      6089  TIP3      OH2             7.6966894280       20.1992475841      -16.7176663352  W2        6089            0.0000000000
     18266      6089  TIP3      H1              7.4431694280       20.2184075841      -15.7948563352  W2        6089            0.0000000000
     18267      6089  TIP3      H2              7.4398994280       19.3277875841      -17.0190463352  W2        6089            0.0000000000
     18268      6090  TIP3      OH2             3.4631894280       22.9503175841       -6.2824263352  W2        6090            0.0000000000
     18269      6090  TIP3      H1              2.8213994280       22.9100475841       -5.5734163352  W2        6090            0.0000000000
     18270      6090  TIP3      H2              3.5003894280       23.8767875841       -6.5201263352  W2        6090            0.0000000000
     18271      6091  TIP3      OH2             3.4600994280       23.1713275841      -11.3704263352  W2        6091            0.0000000000
     18272      6091  TIP3      H1              2.5673894280       22.8309375841      -11.4290463352  W2        6091            0.0000000000
     18273      6091  TIP3      H2              3.9107594280       22.7944175841      -12.1261063352  W2        6091            0.0000000000
     18274      6092  TIP3      OH2             8.9956494280       23.5873575841      -12.5533463352  W2        6092            0.0000000000
     18275      6092  TIP3      H1              8.5866794280       24.4022175841      -12.8448663352  W2        6092            0.0000000000
     18276      6092  TIP3      H2              9.7162694280       23.4473675841      -13.1676363352  W2        6092            0.0000000000
     18277      6093  TIP3      OH2             8.0978094280       23.7629975841       -1.0652763352  W2        6093            0.0000000000
     18278      6093  TIP3      H1              7.5351894280       23.0581575841       -0.7444963352  W2        6093            0.0000000000
     18279      6093  TIP3      H2              8.9241494280       23.6421875841       -0.5975163352  W2        6093            0.0000000000
     18280      6094  TIP3      OH2            10.0004194280       23.0333975841       -9.7393763352  W2        6094            0.0000000000
     18281      6094  TIP3      H1              9.8048694280       23.6390775841      -10.4543163352  W2        6094            0.0000000000
     18282      6094  TIP3      H2             10.1816794280       22.1999175841      -10.1737463352  W2        6094            0.0000000000
     18283      6095  TIP3      OH2             1.2132394280       23.2706675841       -4.4152263352  W2        6095            0.0000000000
     18284      6095  TIP3      H1              1.1751794280       23.6708275841       -3.5465163352  W2        6095            0.0000000000
     18285      6095  TIP3      H2              0.7223494280       22.4539075841       -4.3249363352  W2        6095            0.0000000000
     18286      6096  TIP3      OH2             4.5789794280       20.6448975841      -17.6166263352  W2        6096            0.0000000000
     18287      6096  TIP3      H1              4.1480494280       20.1999075841      -16.8868863352  W2        6096            0.0000000000
     18288      6096  TIP3      H2              3.8608494280       21.0165275841      -18.1288763352  W2        6096            0.0000000000
     18289      6097  TIP3      OH2            -2.1786805720       20.3868475841      -10.5647563352  W2        6097            0.0000000000
     18290      6097  TIP3      H1             -1.5479105720       20.3580575841       -9.8453663352  W2        6097            0.0000000000
     18291      6097  TIP3      H2             -1.7292505720       19.9617175841      -11.2951663352  W2        6097            0.0000000000
     18292      6098  TIP3      OH2            -0.9044705720       21.1330475841      -15.1407163352  W2        6098            0.0000000000
     18293      6098  TIP3      H1             -0.4303005720       21.7240375841      -15.7256263352  W2        6098            0.0000000000
     18294      6098  TIP3      H2             -1.6218305720       21.6633375841      -14.7937063352  W2        6098            0.0000000000
     18295      6099  TIP3      OH2             9.2643394280       24.6715275841       -5.0681363352  W2        6099            0.0000000000
     18296      6099  TIP3      H1              9.5878194280       24.0404975841       -5.7110863352  W2        6099            0.0000000000
     18297      6099  TIP3      H2              8.8242694280       24.1367475841       -4.4073963352  W2        6099            0.0000000000
     18298      6100  TIP3      OH2             6.0416294280       20.5990775841      -10.2840163352  W2        6100            0.0000000000
     18299      6100  TIP3      H1              5.1307394280       20.6557575841       -9.9954163352  W2        6100            0.0000000000
     18300      6100  TIP3      H2              6.5469194280       20.5386275841       -9.4732963352  W2        6100            0.0000000000
     18301      6101  TIP3      OH2             0.8699694280       22.2277075841      -11.4572563352  W2        6101            0.0000000000
     18302      6101  TIP3      H1             -0.0192305720       22.3272575841      -11.7972963352  W2        6101            0.0000000000
     18303      6101  TIP3      H2              1.1664594280       21.3860075841      -11.8034663352  W2        6101            0.0000000000
     18304      6102  TIP3      OH2             4.5231494280       22.2279675841      -13.8007963352  W2        6102            0.0000000000
     18305      6102  TIP3      H1              5.4546994280       22.3569675841      -13.6224863352  W2        6102            0.0000000000
     18306      6102  TIP3      H2              4.3081794280       22.8973975841      -14.4503263352  W2        6102            0.0000000000
     18307      6103  TIP3      OH2            10.4468194280       19.8337075841       -7.0198363352  W2        6103            0.0000000000
     18308      6103  TIP3      H1              9.7699794280       19.9650175841       -6.3558663352  W2        6103            0.0000000000
     18309      6103  TIP3      H2              9.9613094280       19.6786575841       -7.8300663352  W2        6103            0.0000000000
     18310      6104  TIP3      OH2             3.1971694280       23.4221875841      -16.2341863352  W2        6104            0.0000000000
     18311      6104  TIP3      H1              2.6546794280       23.0425675841      -16.9254263352  W2        6104            0.0000000000
     18312      6104  TIP3      H2              4.0306594280       23.6166575841      -16.6627763352  W2        6104            0.0000000000
     18313      6105  TIP3      OH2            13.7343294280       35.5052475841       -0.7430763352  W2        6105            0.0000000000
     18314      6105  TIP3      H1             13.9341994280       35.9294375841       -1.5775463352  W2        6105            0.0000000000
     18315      6105  TIP3      H2             14.3896994280       35.8490675841       -0.1360363352  W2        6105            0.0000000000
     18316      6106  TIP3      OH2             1.3323094280       27.9793775841       -1.1350263352  W2        6106            0.0000000000
     18317      6106  TIP3      H1              2.0645494280       28.2339675841       -0.5735763352  W2        6106            0.0000000000
     18318      6106  TIP3      H2              0.5521794280       28.1839175841       -0.6194863352  W2        6106            0.0000000000
     18319      6107  TIP3      OH2             7.3615994280       23.3863775841       -8.3970563352  W2        6107            0.0000000000
     18320      6107  TIP3      H1              7.9259394280       22.8400375841       -8.9440963352  W2        6107            0.0000000000
     18321      6107  TIP3      H2              7.2139394280       22.8645675841       -7.6082963352  W2        6107            0.0000000000
     18322      6108  TIP3      OH2             2.3635694280       19.5229875841      -11.9785763352  W2        6108            0.0000000000
     18323      6108  TIP3      H1              2.0465194280       18.6205175841      -12.0140363352  W2        6108            0.0000000000
     18324      6108  TIP3      H2              3.1449794280       19.5247275841      -12.5314163352  W2        6108            0.0000000000
     18325      6109  TIP3      OH2             5.9881894280       21.7749875841       -5.9830163352  W2        6109            0.0000000000
     18326      6109  TIP3      H1              5.1527194280       22.2289375841       -5.8727763352  W2        6109            0.0000000000
     18327      6109  TIP3      H2              6.5122494280       22.0508375841       -5.2310263352  W2        6109            0.0000000000
     18328      6110  TIP3      OH2             6.5324494280       27.9877575841      -14.2983763352  W2        6110            0.0000000000
     18329      6110  TIP3      H1              5.7875494280       27.4802875841      -14.6205863352  W2        6110            0.0000000000
     18330      6110  TIP3      H2              6.3981694280       28.0365575841      -13.3518963352  W2        6110            0.0000000000
     18331      6111  TIP3      OH2            13.6823394280       27.1205775841       -5.5116163352  W2        6111            0.0000000000
     18332      6111  TIP3      H1             14.3242194280       27.5772075841       -6.0553963352  W2        6111            0.0000000000
     18333      6111  TIP3      H2             12.8520294280       27.2338175841       -5.9742063352  W2        6111            0.0000000000
     18334      6112  TIP3      OH2            10.4301294280       20.8017475841      -16.0991163352  W2        6112            0.0000000000
     18335      6112  TIP3      H1              9.4915494280       20.9133075841      -16.2502363352  W2        6112            0.0000000000
     18336      6112  TIP3      H2             10.7273394280       21.6584375841      -15.7925463352  W2        6112            0.0000000000
     18337      6113  TIP3      OH2             8.0516594280       28.1720875841       -3.0614663352  W2        6113            0.0000000000
     18338      6113  TIP3      H1              7.7062694280       27.7903275841       -2.2545063352  W2        6113            0.0000000000
     18339      6113  TIP3      H2              7.8516694280       29.1054475841       -2.9901763352  W2        6113            0.0000000000
     18340      6114  TIP3      OH2            11.1484794280       22.6690175841      -14.4383763352  W2        6114            0.0000000000
     18341      6114  TIP3      H1             12.0403794280       22.5315175841      -14.1192563352  W2        6114            0.0000000000
     18342      6114  TIP3      H2             11.2048394280       23.4596275841      -14.9750263352  W2        6114            0.0000000000
     18343      6115  TIP3      OH2             1.6572794280       27.2827575841       -8.5285863352  W2        6115            0.0000000000
     18344      6115  TIP3      H1              2.4019994280       27.2803275841       -9.1299363352  W2        6115            0.0000000000
     18345      6115  TIP3      H2              1.7349394280       26.4591375841       -8.0470763352  W2        6115            0.0000000000
     18346      6116  TIP3      OH2             8.6578594280       29.4461875841      -15.2729163352  W2        6116            0.0000000000
     18347      6116  TIP3      H1              8.3626994280       30.2729775841      -14.8914363352  W2        6116            0.0000000000
     18348      6116  TIP3      H2              7.9548594280       28.8268775841      -15.0767763352  W2        6116            0.0000000000
     18349      6117  TIP3      OH2            -1.3347505720       25.7434475841       -3.2137363352  W2        6117            0.0000000000
     18350      6117  TIP3      H1             -1.1118905720       25.3254075841       -2.3819863352  W2        6117            0.0000000000
     18351      6117  TIP3      H2             -1.9367405720       25.1309475841       -3.6364563352  W2        6117            0.0000000000
     18352      6118  TIP3      OH2             5.6817394280       25.2604375841       -1.0007663352  W2        6118            0.0000000000
     18353      6118  TIP3      H1              5.3858194280       25.0947375841       -1.8958563352  W2        6118            0.0000000000
     18354      6118  TIP3      H2              6.6132594280       25.0404675841       -1.0113763352  W2        6118            0.0000000000
     18355      6119  TIP3      OH2            10.3020194280       30.6336375841       -3.1109663352  W2        6119            0.0000000000
     18356      6119  TIP3      H1              9.4014494280       30.8168975841       -3.3785763352  W2        6119            0.0000000000
     18357      6119  TIP3      H2             10.3361294280       30.8925675841       -2.1900863352  W2        6119            0.0000000000
     18358      6120  TIP3      OH2            16.0333494280       22.8784275841      -14.7437063352  W2        6120            0.0000000000
     18359      6120  TIP3      H1             15.4789794280       22.4822275841      -15.4159563352  W2        6120            0.0000000000
     18360      6120  TIP3      H2             16.1337094280       23.7889475841      -15.0213763352  W2        6120            0.0000000000
     18361      6121  TIP3      OH2            15.9965494280       28.6785975841       -1.9065563352  W2        6121            0.0000000000
     18362      6121  TIP3      H1             15.1453994280       28.9169775841       -2.2739163352  W2        6121            0.0000000000
     18363      6121  TIP3      H2             16.5868894280       28.6619175841       -2.6598463352  W2        6121            0.0000000000
     18364      6122  TIP3      OH2            14.3285194280       31.6644675841      -14.2784963352  W2        6122            0.0000000000
     18365      6122  TIP3      H1             13.9556294280       30.8388475841      -13.9694363352  W2        6122            0.0000000000
     18366      6122  TIP3      H2             14.6058694280       31.4814075841      -15.1761563352  W2        6122            0.0000000000
     18367      6123  TIP3      OH2            11.4889094280       26.4724175841       -7.2573063352  W2        6123            0.0000000000
     18368      6123  TIP3      H1             10.5605994280       26.2406075841       -7.2843763352  W2        6123            0.0000000000
     18369      6123  TIP3      H2             11.9400194280       25.6953975841       -7.5874263352  W2        6123            0.0000000000
     18370      6124  TIP3      OH2             4.0322194280       30.8005775841      -11.1244363352  W2        6124            0.0000000000
     18371      6124  TIP3      H1              4.5594394280       31.5740175841      -11.3245563352  W2        6124            0.0000000000
     18372      6124  TIP3      H2              3.1520694280       31.0254975841      -11.4260363352  W2        6124            0.0000000000
     18373      6125  TIP3      OH2            -0.2130105720       25.6629875841      -16.5371963352  W2        6125            0.0000000000
     18374      6125  TIP3      H1              0.4029794280       26.2897075841      -16.1577163352  W2        6125            0.0000000000
     18375      6125  TIP3      H2             -1.0747505720       25.9789675841      -16.2655463352  W2        6125            0.0000000000
     18376      6126  TIP3      OH2             5.4594494280       28.4635675841      -11.5480063352  W2        6126            0.0000000000
     18377      6126  TIP3      H1              5.2184494280       29.3890075841      -11.5064763352  W2        6126            0.0000000000
     18378      6126  TIP3      H2              4.7188094280       28.0046975841      -11.1516163352  W2        6126            0.0000000000
     18379      6127  TIP3      OH2             5.9741094280       32.6129275841       -5.2328963352  W2        6127            0.0000000000
     18380      6127  TIP3      H1              6.3365794280       33.4674875841       -5.4664563352  W2        6127            0.0000000000
     18381      6127  TIP3      H2              6.5056294280       32.3210875841       -4.4922663352  W2        6127            0.0000000000
     18382      6128  TIP3      OH2             4.1425294280       33.4853275841      -12.0027863352  W2        6128            0.0000000000
     18383      6128  TIP3      H1              3.1925794280       33.5910675841      -11.9514563352  W2        6128            0.0000000000
     18384      6128  TIP3      H2              4.4943394280       34.3060675841      -11.6580363352  W2        6128            0.0000000000
     18385      6129  TIP3      OH2             9.5181894280       28.7119975841       -5.5323363352  W2        6129            0.0000000000
     18386      6129  TIP3      H1              9.0923194280       28.4841675841       -4.7059363352  W2        6129            0.0000000000
     18387      6129  TIP3      H2             10.0987694280       27.9731775841       -5.7148063352  W2        6129            0.0000000000
     18388      6130  TIP3      OH2            11.7210794280       29.6410475841      -16.4584363352  W2        6130            0.0000000000
     18389      6130  TIP3      H1             12.0743894280       29.2610275841      -15.6540863352  W2        6130            0.0000000000
     18390      6130  TIP3      H2             10.7724294280       29.5475275841      -16.3715063352  W2        6130            0.0000000000
     18391      6131  TIP3      OH2            12.1766094280       33.2639475841       -3.0628563352  W2        6131            0.0000000000
     18392      6131  TIP3      H1             11.5749294280       32.7082375841       -3.5582263352  W2        6131            0.0000000000
     18393      6131  TIP3      H2             12.4579794280       33.9309275841       -3.6891163352  W2        6131            0.0000000000
     18394      6132  TIP3      OH2            16.2245194280       34.1202975841      -16.2574163352  W2        6132            0.0000000000
     18395      6132  TIP3      H1             16.9683094280       34.7063475841      -16.3972563352  W2        6132            0.0000000000
     18396      6132  TIP3      H2             15.5303294280       34.6888775841      -15.9241763352  W2        6132            0.0000000000
     18397      6133  TIP3      OH2             0.2991994280       20.4967175841       -3.6555963352  W2        6133            0.0000000000
     18398      6133  TIP3      H1             -0.5935705720       20.8352575841       -3.7231963352  W2        6133            0.0000000000
     18399      6133  TIP3      H2              0.2004794280       19.6413275841       -3.2375163352  W2        6133            0.0000000000
     18400      6134  TIP3      OH2            12.5870094280       28.3132475841      -14.2316463352  W2        6134            0.0000000000
     18401      6134  TIP3      H1             12.3097694280       27.5851775841      -13.6755363352  W2        6134            0.0000000000
     18402      6134  TIP3      H2             13.5143094280       28.4324475841      -14.0263863352  W2        6134            0.0000000000
     18403      6135  TIP3      OH2            -0.0496005720       32.3011575841       -5.2206563352  W2        6135            0.0000000000
     18404      6135  TIP3      H1              0.1674294280       31.3693975841       -5.2516863352  W2        6135            0.0000000000
     18405      6135  TIP3      H2              0.1967494280       32.5756575841       -4.3373763352  W2        6135            0.0000000000
     18406      6136  TIP3      OH2             5.8118594280       30.7526575841      -18.0114363352  W2        6136            0.0000000000
     18407      6136  TIP3      H1              6.0508394280       30.0044675841      -18.5585463352  W2        6136            0.0000000000
     18408      6136  TIP3      H2              5.5429894280       30.3648275841      -17.1786563352  W2        6136            0.0000000000
     18409      6137  TIP3      OH2             4.7489194280       30.3230375841      -15.5551763352  W2        6137            0.0000000000
     18410      6137  TIP3      H1              4.8957194280       29.8030175841      -14.7650863352  W2        6137            0.0000000000
     18411      6137  TIP3      H2              4.7460894280       31.2297975841      -15.2485863352  W2        6137            0.0000000000
     18412      6138  TIP3      OH2             1.2020294280       27.5753675841      -15.0446363352  W2        6138            0.0000000000
     18413      6138  TIP3      H1              0.5159594280       27.9276175841      -14.4776663352  W2        6138            0.0000000000
     18414      6138  TIP3      H2              1.7248194280       28.3383275841      -15.2912063352  W2        6138            0.0000000000
     18415      6139  TIP3      OH2             9.0335394280       20.2377475841       -4.7657363352  W2        6139            0.0000000000
     18416      6139  TIP3      H1              9.7323294280       20.3116175841       -4.1157663352  W2        6139            0.0000000000
     18417      6139  TIP3      H2              8.6526794280       19.3732475841       -4.6114463352  W2        6139            0.0000000000
     18418      6140  TIP3      OH2             9.8180294280       19.8899175841      -13.6685063352  W2        6140            0.0000000000
     18419      6140  TIP3      H1             10.0378594280       20.3614575841      -14.4719663352  W2        6140            0.0000000000
     18420      6140  TIP3      H2             10.3764294280       20.2841775841      -12.9984463352  W2        6140            0.0000000000
     18421      6141  TIP3      OH2             7.4866394280       32.0203975841      -14.8057563352  W2        6141            0.0000000000
     18422      6141  TIP3      H1              6.6702494280       32.5173675841      -14.7533263352  W2        6141            0.0000000000
     18423      6141  TIP3      H2              8.0162694280       32.4957475841      -15.4458763352  W2        6141            0.0000000000
     18424      6142  TIP3      OH2             7.0180194280       21.6177975841      -12.8336663352  W2        6142            0.0000000000
     18425      6142  TIP3      H1              7.8302794280       22.1221175841      -12.7874963352  W2        6142            0.0000000000
     18426      6142  TIP3      H2              6.7733194280       21.4727675841      -11.9197063352  W2        6142            0.0000000000
     18427      6143  TIP3      OH2             7.5536594280       22.6040675841       -3.6490063352  W2        6143            0.0000000000
     18428      6143  TIP3      H1              7.6726894280       23.1776075841       -2.8919663352  W2        6143            0.0000000000
     18429      6143  TIP3      H2              8.2091194280       21.9160075841       -3.5342263352  W2        6143            0.0000000000
     18430      6144  TIP3      OH2             7.9016894280       18.6990975841      -11.8955563352  W2        6144            0.0000000000
     18431      6144  TIP3      H1              7.5550394280       19.3161575841      -11.2511263352  W2        6144            0.0000000000
     18432      6144  TIP3      H2              8.5603794280       19.1996675841      -12.3770063352  W2        6144            0.0000000000
     18433      6145  TIP3      OH2             4.8249494280       33.0641175841      -14.8240663352  W2        6145            0.0000000000
     18434      6145  TIP3      H1              4.9858194280       33.8638675841      -15.3248063352  W2        6145            0.0000000000
     18435      6145  TIP3      H2              4.6277294280       33.3707175841      -13.9390063352  W2        6145            0.0000000000
     18436      6146  TIP3      OH2             3.5593894280       19.7620375841      -15.2083063352  W2        6146            0.0000000000
     18437      6146  TIP3      H1              3.4758694280       20.6503475841      -14.8616663352  W2        6146            0.0000000000
     18438      6146  TIP3      H2              4.4494194280       19.4967075841      -14.9766263352  W2        6146            0.0000000000
     18439      6147  TIP3      OH2            13.7582394280       20.5110975841       -2.8140363352  W2        6147            0.0000000000
     18440      6147  TIP3      H1             12.8418194280       20.7732675841       -2.9016663352  W2        6147            0.0000000000
     18441      6147  TIP3      H2             14.0937394280       20.5079975841       -3.7105063352  W2        6147            0.0000000000
     18442      6148  TIP3      OH2            12.3603394280       24.2611975841       -8.7183063352  W2        6148            0.0000000000
     18443      6148  TIP3      H1             11.5627794280       23.8462175841       -9.0468063352  W2        6148            0.0000000000
     18444      6148  TIP3      H2             12.8054494280       23.5705675841       -8.2272563352  W2        6148            0.0000000000
     18445      6149  TIP3      OH2             1.8179194280       30.1892575841      -16.1478563352  W2        6149            0.0000000000
     18446      6149  TIP3      H1              2.4100694280       30.8887375841      -15.8716163352  W2        6149            0.0000000000
     18447      6149  TIP3      H2              2.2772194280       29.7562075841      -16.8673963352  W2        6149            0.0000000000
     18448      6150  TIP3      OH2             0.1338394280       22.8535575841      -17.0319163352  W2        6150            0.0000000000
     18449      6150  TIP3      H1              0.0890994280       23.7928675841      -16.8532163352  W2        6150            0.0000000000
     18450      6150  TIP3      H2             -0.7538405720       22.6180475841      -17.3017063352  W2        6150            0.0000000000
     18451      6151  TIP3      OH2            13.4467994280       33.5174475841       -7.0959563352  W2        6151            0.0000000000
     18452      6151  TIP3      H1             13.2912294280       34.1958875841       -7.7530263352  W2        6151            0.0000000000
     18453      6151  TIP3      H2             14.3794394280       33.5893775841       -6.8928963352  W2        6151            0.0000000000
     18454      6152  TIP3      OH2             0.9420394280       17.6352175841       -8.3588163352  W2        6152            0.0000000000
     18455      6152  TIP3      H1              0.7130194280       17.6944675841       -9.2863163352  W2        6152            0.0000000000
     18456      6152  TIP3      H2              0.4993794280       16.8437675841       -8.0524063352  W2        6152            0.0000000000
     18457      6153  TIP3      OH2            -0.1276305720       31.5759275841      -12.1982363352  W2        6153            0.0000000000
     18458      6153  TIP3      H1             -0.9597705720       32.0481975841      -12.1710963352  W2        6153            0.0000000000
     18459      6153  TIP3      H2              0.4181994280       32.0856875841      -12.7969263352  W2        6153            0.0000000000
     18460      6154  TIP3      OH2            -0.8392605720       34.1882975841       -0.8684363352  W2        6154            0.0000000000
     18461      6154  TIP3      H1             -0.2990405720       33.9716975841       -0.1085163352  W2        6154            0.0000000000
     18462      6154  TIP3      H2             -1.3204605720       33.3828975841       -1.0581863352  W2        6154            0.0000000000
     18463      6155  TIP3      OH2             3.7580794280       33.1077375841        0.7519836648  W2        6155            0.0000000000
     18464      6155  TIP3      H1              4.5257994280       32.6488175841        1.0929036648  W2        6155            0.0000000000
     18465      6155  TIP3      H2              3.7366994280       32.8817175841       -0.1778963352  W2        6155            0.0000000000
     18466      6156  TIP3      OH2             7.8500394280       32.6157975841      -17.8728363352  W2        6156            0.0000000000
     18467      6156  TIP3      H1              7.2061394280       31.9846575841      -17.5514663352  W2        6156            0.0000000000
     18468      6156  TIP3      H2              8.6118694280       32.0845975841      -18.1044863352  W2        6156            0.0000000000
     18469      6157  TIP3      OH2            10.3349494280       31.4878475841       -0.5188663352  W2        6157            0.0000000000
     18470      6157  TIP3      H1              9.9838994280       30.6311475841       -0.2758263352  W2        6157            0.0000000000
     18471      6157  TIP3      H2             11.0612694280       31.6305175841        0.0880336648  W2        6157            0.0000000000
     18472      6158  TIP3      OH2            12.4543294280       32.4327875841      -17.6390363352  W2        6158            0.0000000000
     18473      6158  TIP3      H1             12.7373694280       31.6383075841      -17.1863463352  W2        6158            0.0000000000
     18474      6158  TIP3      H2             13.1941194280       32.6658875841      -18.1999263352  W2        6158            0.0000000000
     18475      6159  TIP3      OH2            -0.9323105720       27.9987075841        0.0859936648  W2        6159            0.0000000000
     18476      6159  TIP3      H1             -0.7882605720       27.0967775841       -0.2003363352  W2        6159            0.0000000000
     18477      6159  TIP3      H2             -1.7045705720       28.2849175841       -0.4017763352  W2        6159            0.0000000000
     18478      6160  TIP3      OH2             3.4090594280       28.3422775841      -17.7815463352  W2        6160            0.0000000000
     18479      6160  TIP3      H1              3.4734694280       27.5482375841      -17.2509063352  W2        6160            0.0000000000
     18480      6160  TIP3      H2              4.0619794280       28.2235575841      -18.4713463352  W2        6160            0.0000000000
     18481      6161  TIP3      OH2             5.7232994280       27.9685175841       -0.4813663352  W2        6161            0.0000000000
     18482      6161  TIP3      H1              5.3946794280       28.2393275841       -1.3386263352  W2        6161            0.0000000000
     18483      6161  TIP3      H2              5.8751194280       27.0274975841       -0.5688663352  W2        6161            0.0000000000
     18484      6162  TIP3      OH2             8.7613994280       29.3894475841      -18.0457463352  W2        6162            0.0000000000
     18485      6162  TIP3      H1              8.4928094280       29.5696575841      -17.1448563352  W2        6162            0.0000000000
     18486      6162  TIP3      H2              8.5549594280       28.4640675841      -18.1771663352  W2        6162            0.0000000000
     18487      6163  TIP3      OH2            11.4578194280       27.8842475841       -3.0981363352  W2        6163            0.0000000000
     18488      6163  TIP3      H1             12.2032994280       28.4726175841       -3.2177363352  W2        6163            0.0000000000
     18489      6163  TIP3      H2             10.7004994280       28.4662175841       -3.0348263352  W2        6163            0.0000000000
     18490      6164  TIP3      OH2            -0.0996605720       25.1990375841       -0.4940763352  W2        6164            0.0000000000
     18491      6164  TIP3      H1              0.3084594280       24.3416975841       -0.6150163352  W2        6164            0.0000000000
     18492      6164  TIP3      H2             -0.3599005720       25.2131675841        0.4269536648  W2        6164            0.0000000000
     18493      6165  TIP3      OH2             4.5584394280       26.3148975841      -15.4757463352  W2        6165            0.0000000000
     18494      6165  TIP3      H1              4.0986394280       25.8307275841      -14.7898963352  W2        6165            0.0000000000
     18495      6165  TIP3      H2              4.8133094280       25.6464375841      -16.1116963352  W2        6165            0.0000000000
     18496      6166  TIP3      OH2             3.8473694280       24.2076075841       -3.1197863352  W2        6166            0.0000000000
     18497      6166  TIP3      H1              3.2289794280       24.8822675841       -2.8393163352  W2        6166            0.0000000000
     18498      6166  TIP3      H2              4.1914894280       24.5289975841       -3.9531663352  W2        6166            0.0000000000
     18499      6167  TIP3      OH2             5.6294794280       24.5580775841      -17.2134263352  W2        6167            0.0000000000
     18500      6167  TIP3      H1              5.4489794280       24.4031975841      -18.1405963352  W2        6167            0.0000000000
     18501      6167  TIP3      H2              6.5795294280       24.6659475841      -17.1686363352  W2        6167            0.0000000000
     18502      6168  TIP3      OH2             8.8671894280       26.6791375841        0.1576936648  W2        6168            0.0000000000
     18503      6168  TIP3      H1              9.8203094280       26.7630475841        0.1302936648  W2        6168            0.0000000000
     18504      6168  TIP3      H2              8.7066494280       25.9673175841        0.7771836648  W2        6168            0.0000000000
     18505      6169  TIP3      OH2            15.0193094280       26.9124975841      -17.7676163352  W2        6169            0.0000000000
     18506      6169  TIP3      H1             14.7457894280       26.4880475841      -18.5807863352  W2        6169            0.0000000000
     18507      6169  TIP3      H2             15.0587194280       27.8439475841      -17.9845763352  W2        6169            0.0000000000
     18508      6170  TIP3      OH2             4.1867394280       21.5626875841       -2.0374763352  W2        6170            0.0000000000
     18509      6170  TIP3      H1              4.3368294280       20.8338175841       -2.6395063352  W2        6170            0.0000000000
     18510      6170  TIP3      H2              4.1889794280       22.3398575841       -2.5962563352  W2        6170            0.0000000000
     18511      6171  TIP3      OH2             4.5993094280       19.9322675841       -4.5447363352  W2        6171            0.0000000000
     18512      6171  TIP3      H1              5.1350594280       20.3839375841       -5.1968063352  W2        6171            0.0000000000
     18513      6171  TIP3      H2              3.7472694280       19.8242475841       -4.9673263352  W2        6171            0.0000000000
     18514      6172  TIP3      OH2             6.1811494280       25.3718875841       -4.3052163352  W2        6172            0.0000000000
     18515      6172  TIP3      H1              6.9316294280       25.2156375841       -4.8784363352  W2        6172            0.0000000000
     18516      6172  TIP3      H2              5.8419794280       26.2235475841       -4.5806663352  W2        6172            0.0000000000
     18517      6173  TIP3      OH2            10.5967694280       23.1870675841        0.7233136648  W2        6173            0.0000000000
     18518      6173  TIP3      H1             10.7888994280       22.2560075841        0.6117636648  W2        6173            0.0000000000
     18519      6173  TIP3      H2             11.4543994280       23.6120175841        0.7128536648  W2        6173            0.0000000000
     18520      6174  TIP3      OH2            11.9134894280       25.9755875841       -1.1994163352  W2        6174            0.0000000000
     18521      6174  TIP3      H1             11.6319894280       26.6850475841       -1.7770363352  W2        6174            0.0000000000
     18522      6174  TIP3      H2             12.8559194280       25.9028875841       -1.3502963352  W2        6174            0.0000000000
     18523      6175  TIP3      OH2             2.6653694280       22.7610375841       -0.1259163352  W2        6175            0.0000000000
     18524      6175  TIP3      H1              1.8982694280       22.2285175841       -0.3361563352  W2        6175            0.0000000000
     18525      6175  TIP3      H2              3.3442694280       22.4510775841       -0.7252863352  W2        6175            0.0000000000
     18526      6176  TIP3      OH2             5.4048594280       17.3888375841       -4.1133763352  W2        6176            0.0000000000
     18527      6176  TIP3      H1              5.3068194280       18.3351575841       -4.2187563352  W2        6176            0.0000000000
     18528      6176  TIP3      H2              4.6624794280       17.0162175841       -4.5890263352  W2        6176            0.0000000000
     18529      6177  TIP3      OH2             6.6689094280       21.7103775841       -0.5495363352  W2        6177            0.0000000000
     18530      6177  TIP3      H1              6.4334494280       21.4910475841        0.3519536648  W2        6177            0.0000000000
     18531      6177  TIP3      H2              5.8855994280       21.5034975841       -1.0592863352  W2        6177            0.0000000000
     18532      6178  TIP3      OH2             9.3845694280       20.8377275841       -1.4741863352  W2        6178            0.0000000000
     18533      6178  TIP3      H1              8.4371094280       20.8696975841       -1.3418563352  W2        6178            0.0000000000
     18534      6178  TIP3      H2              9.6972394280       20.2124375841       -0.8203663352  W2        6178            0.0000000000
     18535      6179  TIP3      OH2            11.0187194280       19.4718375841        0.5310036648  W2        6179            0.0000000000
     18536      6179  TIP3      H1             10.9218994280       18.5195675841        0.5251936648  W2        6179            0.0000000000
     18537      6179  TIP3      H2             10.6970294280       19.7405175841        1.3915536648  W2        6179            0.0000000000
     18538      6180  TIP3      OH2             0.8456494280       20.6814175841       -0.4214463352  W2        6180            0.0000000000
     18539      6180  TIP3      H1              1.0573894280       19.9750275841       -1.0316963352  W2        6180            0.0000000000
     18540      6180  TIP3      H2              0.7343994280       20.2440175841        0.4226736648  W2        6180            0.0000000000
     18541      6181  TIP3      OH2             5.6266694280       16.6825775841       -1.4420963352  W2        6181            0.0000000000
     18542      6181  TIP3      H1              6.3385094280       16.0427975841       -1.4561863352  W2        6181            0.0000000000
     18543      6181  TIP3      H2              5.5257094280       16.9494075841       -2.3557863352  W2        6181            0.0000000000
     18544      6182  TIP3      OH2             5.9804194280       18.3654175841        0.6115336648  W2        6182            0.0000000000
     18545      6182  TIP3      H1              5.8486394280       17.8897975841       -0.2086163352  W2        6182            0.0000000000
     18546      6182  TIP3      H2              5.3811594280       19.1097775841        0.5562436648  W2        6182            0.0000000000
     18547      6183  TIP3      OH2             5.5266494280       35.2484475841      -16.2120663352  W2        6183            0.0000000000
     18548      6183  TIP3      H1              6.4597194280       35.4063175841      -16.0682263352  W2        6183            0.0000000000
     18549      6183  TIP3      H2              5.2625294280       35.9237475841      -16.8369163352  W2        6183            0.0000000000
     18550      6184  TIP3      OH2            -0.9048605720       29.8848275841      -16.7292563352  W2        6184            0.0000000000
     18551      6184  TIP3      H1              0.0090594280       29.9637175841      -16.4558663352  W2        6184            0.0000000000
     18552      6184  TIP3      H2             -0.8975505720       29.1977875841      -17.3956963352  W2        6184            0.0000000000
     18553      6185  TIP3      OH2            -2.2558005720       35.2776775841      -11.6518663352  W2        6185            0.0000000000
     18554      6185  TIP3      H1             -2.9030905720       34.8158475841      -12.1847463352  W2        6185            0.0000000000
     18555      6185  TIP3      H2             -1.9013405720       34.6060075841      -11.0692463352  W2        6185            0.0000000000
     18556      6186  TIP3      OH2            -1.3858805720       33.3583775841       -9.8472463352  W2        6186            0.0000000000
     18557      6186  TIP3      H1             -1.7202005720       32.4781075841       -9.6752263352  W2        6186            0.0000000000
     18558      6186  TIP3      H2             -1.1636405720       33.7038775841       -8.9826863352  W2        6186            0.0000000000
     18559      6187  TIP3      OH2            16.1625994280       34.1680175841       -6.8667663352  W2        6187            0.0000000000
     18560      6187  TIP3      H1             16.1412694280       34.3528575841       -5.9278263352  W2        6187            0.0000000000
     18561      6187  TIP3      H2             16.8532194280       34.7364175841       -7.2076263352  W2        6187            0.0000000000
     18562      6188  TIP3      OH2            15.7258894280       33.7351275841       -3.9448563352  W2        6188            0.0000000000
     18563      6188  TIP3      H1             15.2387594280       32.9995375841       -4.3161163352  W2        6188            0.0000000000
     18564      6188  TIP3      H2             16.2751594280       33.3415175841       -3.2669163352  W2        6188            0.0000000000
     18565      6189  TIP3      OH2            14.1766194280       29.5249375841        0.6931736648  W2        6189            0.0000000000
     18566      6189  TIP3      H1             13.3107294280       29.4199075841        1.0874036648  W2        6189            0.0000000000
     18567      6189  TIP3      H2             14.5532094280       30.2832675841        1.1396436648  W2        6189            0.0000000000
     18568      6190  TIP3      OH2            15.4775894280       27.7813075841      -13.7925763352  W2        6190            0.0000000000
     18569      6190  TIP3      H1             16.3277294280       28.2023975841      -13.6654163352  W2        6190            0.0000000000
     18570      6190  TIP3      H2             15.4830994280       27.0413175841      -13.1854363352  W2        6190            0.0000000000
     18571      6191  TIP3      OH2            15.8721494280       25.8350475841      -11.9690063352  W2        6191            0.0000000000
     18572      6191  TIP3      H1             15.1456094280       25.3553075841      -11.5712463352  W2        6191            0.0000000000
     18573      6191  TIP3      H2             16.4534794280       26.0405175841      -11.2368463352  W2        6191            0.0000000000
     18574      6192  TIP3      OH2            15.6312694280       28.6197975841       -7.0212463352  W2        6192            0.0000000000
     18575      6192  TIP3      H1             16.4646894280       28.2417975841       -7.3018863352  W2        6192            0.0000000000
     18576      6192  TIP3      H2             15.7432994280       29.5629175841       -7.1403363352  W2        6192            0.0000000000
     18577      6193  TIP3      OH2            14.1174994280       31.4975475841       -4.7144063352  W2        6193            0.0000000000
     18578      6193  TIP3      H1             13.4700294280       31.8226975841       -4.0888863352  W2        6193            0.0000000000
     18579      6193  TIP3      H2             13.5998994280       31.0573175841       -5.3885763352  W2        6193            0.0000000000
     18580      6194  TIP3      OH2            16.1404594280       25.7358975841      -15.5778763352  W2        6194            0.0000000000
     18581      6194  TIP3      H1             15.6185694280       26.0923075841      -16.2967863352  W2        6194            0.0000000000
     18582      6194  TIP3      H2             16.1073794280       26.4106775841      -14.8997863352  W2        6194            0.0000000000
     18583      6195  TIP3      OH2            14.4893594280       22.9754575841      -17.0271663352  W2        6195            0.0000000000
     18584      6195  TIP3      H1             14.5857994280       23.6421575841      -17.7071963352  W2        6195            0.0000000000
     18585      6195  TIP3      H2             14.3493194280       22.1600875841      -17.5086163352  W2        6195            0.0000000000
     18586      6196  TIP3      OH2            13.6588294280       24.3556975841      -11.4061363352  W2        6196            0.0000000000
     18587      6196  TIP3      H1             13.5087094280       23.4105575841      -11.4263563352  W2        6196            0.0000000000
     18588      6196  TIP3      H2             13.3052794280       24.6368375841      -10.5622263352  W2        6196            0.0000000000
     18589      6197  TIP3      OH2            -1.3059305720       26.4339175841       -7.3957563352  W2        6197            0.0000000000
     18590      6197  TIP3      H1             -1.1216405720       26.3520875841       -8.3314663352  W2        6197            0.0000000000
     18591      6197  TIP3      H2             -0.4566405720       26.3096175841       -6.9721163352  W2        6197            0.0000000000
     18592      6198  TIP3      OH2            14.5151194280       26.3260275841       -1.7673063352  W2        6198            0.0000000000
     18593      6198  TIP3      H1             15.0978494280       25.5912575841       -1.5755863352  W2        6198            0.0000000000
     18594      6198  TIP3      H2             15.0790494280       27.0980575841       -1.7207263352  W2        6198            0.0000000000
     18595      6199  TIP3      OH2            16.0118294280       24.2286075841       -1.0827663352  W2        6199            0.0000000000
     18596      6199  TIP3      H1             15.1484994280       23.8498175841       -1.2482963352  W2        6199            0.0000000000
     18597      6199  TIP3      H2             16.6161994280       23.4900875841       -1.1571863352  W2        6199            0.0000000000
     18598      6200  TIP3      OH2            13.7367394280       20.3834375841      -17.9096163352  W2        6200            0.0000000000
     18599      6200  TIP3      H1             14.3473194280       20.0121175841      -17.2727963352  W2        6200            0.0000000000
     18600      6200  TIP3      H2             12.8998894280       19.9621275841      -17.7136163352  W2        6200            0.0000000000
     18601      6201  TIP3      OH2            13.3693094280       21.9382775841      -12.9436263352  W2        6201            0.0000000000
     18602      6201  TIP3      H1             13.6490194280       21.0313175841      -12.8194563352  W2        6201            0.0000000000
     18603      6201  TIP3      H2             14.1284794280       22.3724275841      -13.3327063352  W2        6201            0.0000000000
     18604      6202  TIP3      OH2            13.9811394280       22.5200175841       -7.5077363352  W2        6202            0.0000000000
     18605      6202  TIP3      H1             14.9139394280       22.7320075841       -7.5421363352  W2        6202            0.0000000000
     18606      6202  TIP3      H2             13.7458894280       22.6212275841       -6.5854363352  W2        6202            0.0000000000
     18607      6203  TIP3      OH2            14.0103294280       23.2565475841       -4.7317963352  W2        6203            0.0000000000
     18608      6203  TIP3      H1             13.1674594280       23.5245875841       -4.3658163352  W2        6203            0.0000000000
     18609      6203  TIP3      H2             14.4527594280       24.0787375841       -4.9426863352  W2        6203            0.0000000000
     18610      6204  TIP3      OH2            -1.7084505720       21.7044175841       -1.2548763352  W2        6204            0.0000000000
     18611      6204  TIP3      H1             -0.7889605720       21.5822475841       -1.0185663352  W2        6204            0.0000000000
     18612      6204  TIP3      H2             -2.1580005720       20.9543875841       -0.8655263352  W2        6204            0.0000000000
     18613      6205  TIP3      OH2            16.2934894280       17.2365675841        0.6217036648  W2        6205            0.0000000000
     18614      6205  TIP3      H1             16.6431894280       16.5829175841        0.0161736648  W2        6205            0.0000000000
     18615      6205  TIP3      H2             16.4404394280       18.0739775841        0.1819636648  W2        6205            0.0000000000
     18616      6206  TIP3      OH2            13.9827894280       19.2012075841      -12.8954263352  W2        6206            0.0000000000
     18617      6206  TIP3      H1             14.1652894280       18.7523575841      -12.0699263352  W2        6206            0.0000000000
     18618      6206  TIP3      H2             13.3830794280       18.6166475841      -13.3589663352  W2        6206            0.0000000000
     18619      6207  TIP3      OH2            -0.4872005720       20.0165775841       -8.3635863352  W2        6207            0.0000000000
     18620      6207  TIP3      H1             -0.0420405720       19.2248275841       -8.0616163352  W2        6207            0.0000000000
     18621      6207  TIP3      H2             -0.0209005720       20.7330975841       -7.9330263352  W2        6207            0.0000000000
     18622      6208  TIP3      OH2            -2.1831705720       23.0158775841       -7.2945663352  W2        6208            0.0000000000
     18623      6208  TIP3      H1             -1.6911905720       22.7949275841       -8.0853663352  W2        6208            0.0000000000
     18624      6208  TIP3      H2             -1.8210805720       23.8562175841       -7.0136163352  W2        6208            0.0000000000
     18625      6209  TIP3      OH2            15.8132094280       19.3460275841       -1.0291663352  W2        6209            0.0000000000
     18626      6209  TIP3      H1             14.8957794280       19.6167375841       -1.0648163352  W2        6209            0.0000000000
     18627      6209  TIP3      H2             15.9361494280       18.8108675841       -1.8131963352  W2        6209            0.0000000000
     18628      6210  TIP3      OH2            15.8494094280       19.2690175841      -16.3673963352  W2        6210            0.0000000000
     18629      6210  TIP3      H1             16.2616694280       18.5475875841      -16.8425963352  W2        6210            0.0000000000
     18630      6210  TIP3      H2             16.5310594280       19.9384775841      -16.3089663352  W2        6210            0.0000000000
     18631      6211  TIP3      OH2            -1.8695205720       19.2737875841      -13.2403263352  W2        6211            0.0000000000
     18632      6211  TIP3      H1             -2.7946805720       19.4824475841      -13.3697763352  W2        6211            0.0000000000
     18633      6211  TIP3      H2             -1.4155305720       19.7578675841      -13.9300963352  W2        6211            0.0000000000
     18634      6212  TIP3      OH2            12.9011994280       34.2579575841      -11.2945863352  W2        6212            0.0000000000
     18635      6212  TIP3      H1             13.5534894280       33.9101675841      -11.9026763352  W2        6212            0.0000000000
     18636      6212  TIP3      H2             13.4115794280       34.7462775841      -10.6486163352  W2        6212            0.0000000000
     18637      6213  TIP3      OH2            -1.9059805720       18.0116875841       -4.8960763352  W2        6213            0.0000000000
     18638      6213  TIP3      H1             -2.5709305720       17.7657175841       -4.2529863352  W2        6213            0.0000000000
     18639      6213  TIP3      H2             -2.3488505720       18.6337275841       -5.4732763352  W2        6213            0.0000000000
     18640      6214  TIP3      OH2             0.2859494280       31.1870975841       -0.7514963352  W2        6214            0.0000000000
     18641      6214  TIP3      H1             -0.5348005720       31.3617475841       -1.2120263352  W2        6214            0.0000000000
     18642      6214  TIP3      H2              0.0337294280       31.1135675841        0.1689436648  W2        6214            0.0000000000
     18643      6215  TIP3      OH2             3.2402394280       32.1612175841       -4.4930963352  W2        6215            0.0000000000
     18644      6215  TIP3      H1              2.8153494280       32.9710675841       -4.7756363352  W2        6215            0.0000000000
     18645      6215  TIP3      H2              4.1445194280       32.2466275841       -4.7951163352  W2        6215            0.0000000000
     18646      6216  TIP3      OH2             7.5513794280       33.5602175841       -1.5337263352  W2        6216            0.0000000000
     18647      6216  TIP3      H1              7.7361294280       33.2268275841       -0.6556963352  W2        6216            0.0000000000
     18648      6216  TIP3      H2              8.3978294280       33.8700775841       -1.8558063352  W2        6216            0.0000000000
     18649      6217  TIP3      OH2             9.8964194280       34.8461075841       -2.2895863352  W2        6217            0.0000000000
     18650      6217  TIP3      H1             10.5733094280       34.2133375841       -2.5296663352  W2        6217            0.0000000000
     18651      6217  TIP3      H2             10.2182994280       35.2471575841       -1.4822563352  W2        6217            0.0000000000
     18652      6218  TIP3      OH2            14.8137994280       17.4356575841       -3.2100863352  W2        6218            0.0000000000
     18653      6218  TIP3      H1             14.0011494280       17.7606875841       -3.5976163352  W2        6218            0.0000000000
     18654      6218  TIP3      H2             15.0466494280       16.6755075841       -3.7431763352  W2        6218            0.0000000000
     18655      6219  TIP3      OH2             0.6419094280       35.4176075841       -4.4455663352  W2        6219            0.0000000000
     18656      6219  TIP3      H1             -0.0784505720       35.8577075841       -4.8967963352  W2        6219            0.0000000000
     18657      6219  TIP3      H2              0.2763094280       35.1670775841       -3.5971663352  W2        6219            0.0000000000
     18658      6220  TIP3      OH2             3.1091694280       35.0179975841       -5.4158463352  W2        6220            0.0000000000
     18659      6220  TIP3      H1              2.2443894280       35.0898475841       -5.0118363352  W2        6220            0.0000000000
     18660      6220  TIP3      H2              3.0540694280       35.5647275841       -6.1995963352  W2        6220            0.0000000000
     18661      6221  TIP3      OH2             7.8197294280       34.9058875841       -6.2402463352  W2        6221            0.0000000000
     18662      6221  TIP3      H1              7.3631294280       35.4348575841       -6.8944063352  W2        6221            0.0000000000
     18663      6221  TIP3      H2              7.9825294280       35.5090275841       -5.5150163352  W2        6221            0.0000000000
     18664      6222  TIP3      OH2            10.1473594280       33.7838475841       -5.2952163352  W2        6222            0.0000000000
     18665      6222  TIP3      H1              9.2427294280       33.9488675841       -5.5610063352  W2        6222            0.0000000000
     18666      6222  TIP3      H2             10.5762194280       34.6370675841       -5.3608763352  W2        6222            0.0000000000
     18667      6223  TIP3      OH2            12.7515494280       35.3537575841       -5.0004363352  W2        6223            0.0000000000
     18668      6223  TIP3      H1             12.5697494280       36.2696475841       -5.2109463352  W2        6223            0.0000000000
     18669      6223  TIP3      H2             12.9283294280       34.9434675841       -5.8469763352  W2        6223            0.0000000000
     18670      6224  TIP3      OH2             0.0567194280       34.0408575841       -7.5353863352  W2        6224            0.0000000000
     18671      6224  TIP3      H1              0.0383194280       33.6153675841       -6.6781563352  W2        6224            0.0000000000
     18672      6224  TIP3      H2              0.8615094280       33.7223575841       -7.9441663352  W2        6224            0.0000000000
     18673      6225  TIP3      OH2             2.1980294280       32.7507275841       -8.8803963352  W2        6225            0.0000000000
     18674      6225  TIP3      H1              1.9790994280       31.8344675841       -8.7107963352  W2        6225            0.0000000000
     18675      6225  TIP3      H2              3.0222494280       32.8907675841       -8.4142563352  W2        6225            0.0000000000
     18676      6226  TIP3      OH2             4.7352794280       33.2206575841       -8.0315963352  W2        6226            0.0000000000
     18677      6226  TIP3      H1              4.9478494280       32.3325575841       -8.3185063352  W2        6226            0.0000000000
     18678      6226  TIP3      H2              4.7997894280       33.1864275841       -7.0771963352  W2        6226            0.0000000000
     18679      6227  TIP3      OH2             8.2436494280       18.8847175841       -8.8872663352  W2        6227            0.0000000000
     18680      6227  TIP3      H1              7.5693294280       18.2552775841       -8.6316863352  W2        6227            0.0000000000
     18681      6227  TIP3      H2              8.8075694280       18.4006075841       -9.4904763352  W2        6227            0.0000000000
     18682      6228  TIP3      OH2            13.3863694280       16.9921175841       -8.7745563352  W2        6228            0.0000000000
     18683      6228  TIP3      H1             13.9901294280       17.5396575841       -9.2764563352  W2        6228            0.0000000000
     18684      6228  TIP3      H2             12.5165694280       17.3111575841       -9.0151463352  W2        6228            0.0000000000
     18685      6229  TIP3      OH2            15.1134094280       18.1309875841      -10.4414663352  W2        6229            0.0000000000
     18686      6229  TIP3      H1             15.7251594280       17.6165575841      -10.9681063352  W2        6229            0.0000000000
     18687      6229  TIP3      H2             15.4957494280       19.0081975841      -10.4180263352  W2        6229            0.0000000000
     18688      6230  TIP3      OH2             0.5703994280       17.5187475841      -11.0652763352  W2        6230            0.0000000000
     18689      6230  TIP3      H1             -0.2066205720       17.2842375841      -11.5726863352  W2        6230            0.0000000000
     18690      6230  TIP3      H2              1.1007594280       16.7219575841      -11.0564763352  W2        6230            0.0000000000
     18691      6231  TIP3      OH2            -0.5932605720       17.3165575841      -15.2616663352  W2        6231            0.0000000000
     18692      6231  TIP3      H1             -0.1541905720       17.9276075841      -15.8533163352  W2        6231            0.0000000000
     18693      6231  TIP3      H2             -1.2270205720       17.8549675841      -14.7876663352  W2        6231            0.0000000000
     18694      6232  TIP3      OH2             5.1496594280       17.4454575841      -11.2519663352  W2        6232            0.0000000000
     18695      6232  TIP3      H1              6.0239994280       17.8338875841      -11.2815363352  W2        6232            0.0000000000
     18696      6232  TIP3      H2              5.0137394280       17.2302375841      -10.3292463352  W2        6232            0.0000000000
     18697      6233  TIP3      OH2            10.7064994280       17.4754375841       -9.6027963352  W2        6233            0.0000000000
     18698      6233  TIP3      H1             10.7826594280       17.5705975841      -10.5521963352  W2        6233            0.0000000000
     18699      6233  TIP3      H2             10.4314194280       16.5677275841       -9.4738863352  W2        6233            0.0000000000
     18700      6234  TIP3      OH2            12.0597594280       17.5012175841      -13.9102963352  W2        6234            0.0000000000
     18701      6234  TIP3      H1             11.3568694280       18.1161375841      -14.1201563352  W2        6234            0.0000000000
     18702      6234  TIP3      H2             11.6148994280       16.6638875841      -13.7792063352  W2        6234            0.0000000000
     18703      6235  TIP3      OH2            -0.6923105720       33.2647775841      -14.3641563352  W2        6235            0.0000000000
     18704      6235  TIP3      H1             -1.3773205720       33.2266675841      -15.0316463352  W2        6235            0.0000000000
     18705      6235  TIP3      H2             -0.6885905720       34.1775375841      -14.0759463352  W2        6235            0.0000000000
     18706      6236  TIP3      OH2             1.2676494280       19.2327075841      -16.8192563352  W2        6236            0.0000000000
     18707      6236  TIP3      H1              1.7589894280       18.6029475841      -17.3467063352  W2        6236            0.0000000000
     18708      6236  TIP3      H2              1.8912794280       19.5286475841      -16.1561363352  W2        6236            0.0000000000
     18709      6237  TIP3      OH2             6.2936594280       19.5258575841      -14.3622063352  W2        6237            0.0000000000
     18710      6237  TIP3      H1              6.4717894280       18.8791775841      -13.6793463352  W2        6237            0.0000000000
     18711      6237  TIP3      H2              6.2402794280       20.3596275841      -13.8950963352  W2        6237            0.0000000000
     18712      6238  TIP3      OH2             8.1720394280       34.4742675841      -15.9665363352  W2        6238            0.0000000000
     18713      6238  TIP3      H1              9.0380594280       34.8410075841      -16.1447163352  W2        6238            0.0000000000
     18714      6238  TIP3      H2              7.9253194280       34.0350675841      -16.7804563352  W2        6238            0.0000000000
     18715      6239  TIP3      OH2            14.8809994280       34.0372975841      -13.2874263352  W2        6239            0.0000000000
     18716      6239  TIP3      H1             14.6867094280       33.2895075841      -13.8524663352  W2        6239            0.0000000000
     18717      6239  TIP3      H2             14.8420094280       34.7953075841      -13.8706363352  W2        6239            0.0000000000
     18718      6240  TIP3      OH2             0.5281994280       18.0329375841       -1.5476563352  W2        6240            0.0000000000
     18719      6240  TIP3      H1              0.1620194280       17.2671975841       -1.1051863352  W2        6240            0.0000000000
     18720      6240  TIP3      H2              1.4410494280       18.0619575841       -1.2611463352  W2        6240            0.0000000000
     18721      6241  TIP3      OH2             2.5012794280       17.3833775841       -0.0119463352  W2        6241            0.0000000000
     18722      6241  TIP3      H1              3.3996394280       17.1093975841       -0.1966063352  W2        6241            0.0000000000
     18723      6241  TIP3      H2              2.1145894280       16.6409775841        0.4523136648  W2        6241            0.0000000000
     18724      6242  TIP3      OH2             1.1258094280       34.1848575841      -17.3389463352  W2        6242            0.0000000000
     18725      6242  TIP3      H1              0.8582694280       34.4711475841      -16.4656363352  W2        6242            0.0000000000
     18726      6242  TIP3      H2              1.8970694280       33.6387775841      -17.1866963352  W2        6242            0.0000000000
     18727      6243  TIP3      OH2            10.9225094280       16.7159075841        0.1703336648  W2        6243            0.0000000000
     18728      6243  TIP3      H1             10.9992294280       16.2899775841        1.0241036648  W2        6243            0.0000000000
     18729      6243  TIP3      H2             11.8161694280       16.7293775841       -0.1723163352  W2        6243            0.0000000000
     18730      6244  TIP3      OH2            14.0986194280       32.7885375841       -1.1372463352  W2        6244            0.0000000000
     18731      6244  TIP3      H1             13.3168094280       32.6023375841       -1.6571863352  W2        6244            0.0000000000
     18732      6244  TIP3      H2             14.0266094280       33.7179675841       -0.9199963352  W2        6244            0.0000000000
     18733      6245  TIP3      OH2            28.5046594280       26.6749775841      -11.1065263352  W2        6245            0.0000000000
     18734      6245  TIP3      H1             28.5937694280       27.6187975841      -11.2388163352  W2        6245            0.0000000000
     18735      6245  TIP3      H2             27.8664194280       26.3996175841      -11.7645863352  W2        6245            0.0000000000
     18736      6246  TIP3      OH2            27.4377894280       25.9300475841       -7.6877063352  W2        6246            0.0000000000
     18737      6246  TIP3      H1             27.3995394280       25.2836775841       -6.9827463352  W2        6246            0.0000000000
     18738      6246  TIP3      H2             27.1154394280       25.4634875841       -8.4588363352  W2        6246            0.0000000000
     18739      6247  TIP3      OH2            19.8062894280       25.5442575841       -6.0947163352  W2        6247            0.0000000000
     18740      6247  TIP3      H1             19.8474994280       24.9185875841       -5.3714763352  W2        6247            0.0000000000
     18741      6247  TIP3      H2             20.5090594280       26.1681175841       -5.9126763352  W2        6247            0.0000000000
     18742      6248  TIP3      OH2            31.1438094280       28.8690875841       -9.3861963352  W2        6248            0.0000000000
     18743      6248  TIP3      H1             30.7030794280       28.1486875841       -8.9356363352  W2        6248            0.0000000000
     18744      6248  TIP3      H2             31.1307794280       29.5898075841       -8.7564263352  W2        6248            0.0000000000
     18745      6249  TIP3      OH2            20.7295994280       29.9941475841       -7.5598063352  W2        6249            0.0000000000
     18746      6249  TIP3      H1             20.3601194280       29.1921975841       -7.9293763352  W2        6249            0.0000000000
     18747      6249  TIP3      H2             21.6707094280       29.8256375841       -7.5134663352  W2        6249            0.0000000000
     18748      6250  TIP3      OH2            17.3396494280       23.6544075841      -12.1669263352  W2        6250            0.0000000000
     18749      6250  TIP3      H1             16.8919894280       24.5002775841      -12.1852763352  W2        6250            0.0000000000
     18750      6250  TIP3      H2             16.7787694280       23.0748275841      -12.6824163352  W2        6250            0.0000000000
     18751      6251  TIP3      OH2            18.0502594280       25.8163675841      -10.0411263352  W2        6251            0.0000000000
     18752      6251  TIP3      H1             18.2636094280       25.0465275841       -9.5138263352  W2        6251            0.0000000000
     18753      6251  TIP3      H2             18.7880194280       25.9060375841      -10.6443663352  W2        6251            0.0000000000
     18754      6252  TIP3      OH2            28.2553594280       33.9732575841       -9.1741563352  W2        6252            0.0000000000
     18755      6252  TIP3      H1             28.8749994280       33.2967275841       -9.4472363352  W2        6252            0.0000000000
     18756      6252  TIP3      H2             28.0470994280       33.7553375841       -8.2656663352  W2        6252            0.0000000000
     18757      6253  TIP3      OH2            25.8272294280       28.3621875841       -7.2816063352  W2        6253            0.0000000000
     18758      6253  TIP3      H1             26.1310194280       27.6763275841       -7.8761963352  W2        6253            0.0000000000
     18759      6253  TIP3      H2             26.5486294280       28.4810575841       -6.6638063352  W2        6253            0.0000000000
     18760      6254  TIP3      OH2            34.4902094280       19.9637175841       -6.4209863352  W2        6254            0.0000000000
     18761      6254  TIP3      H1             34.5394294280       20.5738375841       -5.6850763352  W2        6254            0.0000000000
     18762      6254  TIP3      H2             34.9157194280       20.4248075841       -7.1438763352  W2        6254            0.0000000000
     18763      6255  TIP3      OH2            28.9679294280       22.7564275841       -6.9541263352  W2        6255            0.0000000000
     18764      6255  TIP3      H1             29.1105194280       21.8101275841       -6.9339663352  W2        6255            0.0000000000
     18765      6255  TIP3      H2             28.8618294280       22.9634075841       -7.8826363352  W2        6255            0.0000000000
     18766      6256  TIP3      OH2            22.1227594280       20.8580675841       -9.6816463352  W2        6256            0.0000000000
     18767      6256  TIP3      H1             22.1658694280       21.7179175841      -10.1000163352  W2        6256            0.0000000000
     18768      6256  TIP3      H2             21.6651694280       20.3055375841      -10.3153263352  W2        6256            0.0000000000
     18769      6257  TIP3      OH2            29.8450294280       20.9886275841      -11.2808163352  W2        6257            0.0000000000
     18770      6257  TIP3      H1             30.4914594280       20.6599475841      -10.6560563352  W2        6257            0.0000000000
     18771      6257  TIP3      H2             30.3549694280       21.5065275841      -11.9036763352  W2        6257            0.0000000000
     18772      6258  TIP3      OH2            18.7429094280       23.2546475841       -8.9195063352  W2        6258            0.0000000000
     18773      6258  TIP3      H1             19.3965694280       22.7048175841       -8.4874963352  W2        6258            0.0000000000
     18774      6258  TIP3      H2             18.7668394280       22.9805475841       -9.8363063352  W2        6258            0.0000000000
     18775      6259  TIP3      OH2            23.8993594280       24.8047775841       -9.7043563352  W2        6259            0.0000000000
     18776      6259  TIP3      H1             24.5154594280       24.2783175841       -9.1949563352  W2        6259            0.0000000000
     18777      6259  TIP3      H2             23.3132394280       24.1646475841      -10.1079963352  W2        6259            0.0000000000
     18778      6260  TIP3      OH2            34.8816694280       21.4416375841       -4.1850063352  W2        6260            0.0000000000
     18779      6260  TIP3      H1             34.1931294280       22.0997075841       -4.2803463352  W2        6260            0.0000000000
     18780      6260  TIP3      H2             34.8971294280       21.2444275841       -3.2484663352  W2        6260            0.0000000000
     18781      6261  TIP3      OH2            20.9329494280       19.7759075841       -5.6075663352  W2        6261            0.0000000000
     18782      6261  TIP3      H1             20.7141194280       20.3059675841       -6.3739663352  W2        6261            0.0000000000
     18783      6261  TIP3      H2             20.2650394280       20.0024575841       -4.9604263352  W2        6261            0.0000000000
     18784      6262  TIP3      OH2            28.3019294280       29.2760175841      -12.0636563352  W2        6262            0.0000000000
     18785      6262  TIP3      H1             28.0064394280       28.9532475841      -12.9149663352  W2        6262            0.0000000000
     18786      6262  TIP3      H2             27.9777094280       30.1756875841      -12.0223963352  W2        6262            0.0000000000
     18787      6263  TIP3      OH2            23.5020894280       27.4514775841       -5.3201963352  W2        6263            0.0000000000
     18788      6263  TIP3      H1             22.7619994280       28.0496275841       -5.2166763352  W2        6263            0.0000000000
     18789      6263  TIP3      H2             24.2160394280       28.0054375841       -5.6358363352  W2        6263            0.0000000000
     18790      6264  TIP3      OH2            31.6088694280       20.2795575841       -9.3002263352  W2        6264            0.0000000000
     18791      6264  TIP3      H1             31.3936694280       19.5138975841       -8.7676263352  W2        6264            0.0000000000
     18792      6264  TIP3      H2             32.2646094280       20.7520175841       -8.7873763352  W2        6264            0.0000000000
     18793      6265  TIP3      OH2            20.5266794280       21.6680875841       -7.6553463352  W2        6265            0.0000000000
     18794      6265  TIP3      H1             21.1403094280       22.3008475841       -7.2821063352  W2        6265            0.0000000000
     18795      6265  TIP3      H2             21.0387494280       21.1955875841       -8.3116563352  W2        6265            0.0000000000
     18796      6266  TIP3      OH2            21.9095194280       29.4157775841       -4.5330463352  W2        6266            0.0000000000
     18797      6266  TIP3      H1             21.9042794280       30.2951275841       -4.9111163352  W2        6266            0.0000000000
     18798      6266  TIP3      H2             21.0559294280       29.3321875841       -4.1080563352  W2        6266            0.0000000000
     18799      6267  TIP3      OH2            18.0306094280       29.0865675841      -13.7511163352  W2        6267            0.0000000000
     18800      6267  TIP3      H1             17.7586994280       29.3156675841      -14.6398263352  W2        6267            0.0000000000
     18801      6267  TIP3      H2             18.0761794280       29.9244475841      -13.2905863352  W2        6267            0.0000000000
     18802      6268  TIP3      OH2            31.6555794280       30.7081575841       -7.0382663352  W2        6268            0.0000000000
     18803      6268  TIP3      H1             30.7139494280       30.7665475841       -6.8765763352  W2        6268            0.0000000000
     18804      6268  TIP3      H2             31.9321894280       31.6142075841       -7.1752963352  W2        6268            0.0000000000
     18805      6269  TIP3      OH2            31.9562794280       18.9946875841       -5.6208763352  W2        6269            0.0000000000
     18806      6269  TIP3      H1             31.2201994280       19.6053975841       -5.6587463352  W2        6269            0.0000000000
     18807      6269  TIP3      H2             32.6396794280       19.4095875841       -6.1472363352  W2        6269            0.0000000000
     18808      6270  TIP3      OH2            24.9594194280       17.0814175841       -8.1550763352  W2        6270            0.0000000000
     18809      6270  TIP3      H1             24.8418394280       16.1330175841       -8.2092463352  W2        6270            0.0000000000
     18810      6270  TIP3      H2             24.1044294280       17.4140275841       -7.8819663352  W2        6270            0.0000000000
     18811      6271  TIP3      OH2            29.9076994280       32.4895075841      -10.4131063352  W2        6271            0.0000000000
     18812      6271  TIP3      H1             30.3329294280       31.7822975841      -10.8981463352  W2        6271            0.0000000000
     18813      6271  TIP3      H2             30.2246994280       33.2907775841      -10.8298863352  W2        6271            0.0000000000
     18814      6272  TIP3      OH2            31.0673494280       30.3903575841      -11.9044463352  W2        6272            0.0000000000
     18815      6272  TIP3      H1             30.8098294280       29.7003675841      -12.5158563352  W2        6272            0.0000000000
     18816      6272  TIP3      H2             31.1384294280       29.9474775841      -11.0588563352  W2        6272            0.0000000000
     18817      6273  TIP3      OH2            32.7533694280       28.9570275841       -3.4270963352  W2        6273            0.0000000000
     18818      6273  TIP3      H1             32.8929994280       28.3652775841       -4.1663963352  W2        6273            0.0000000000
     18819      6273  TIP3      H2             32.9206494280       29.8296175841       -3.7832163352  W2        6273            0.0000000000
     18820      6274  TIP3      OH2            27.2259094280       25.9189775841      -13.6544963352  W2        6274            0.0000000000
     18821      6274  TIP3      H1             26.5144594280       26.4539475841      -14.0064463352  W2        6274            0.0000000000
     18822      6274  TIP3      H2             27.9168694280       25.9741875841      -14.3146063352  W2        6274            0.0000000000
     18823      6275  TIP3      OH2            27.2798294280       24.3764075841      -16.6159963352  W2        6275            0.0000000000
     18824      6275  TIP3      H1             27.9808194280       24.3990975841      -15.9645963352  W2        6275            0.0000000000
     18825      6275  TIP3      H2             27.5821194280       23.7483775841      -17.2720663352  W2        6275            0.0000000000
     18826      6276  TIP3      OH2            34.5952994280       25.2968275841       -5.3610563352  W2        6276            0.0000000000
     18827      6276  TIP3      H1             33.9427094280       25.9913875841       -5.2719663352  W2        6276            0.0000000000
     18828      6276  TIP3      H2             35.0603294280       25.5069175841       -6.1708963352  W2        6276            0.0000000000
     18829      6277  TIP3      OH2            30.6316794280       26.1283075841      -12.7029063352  W2        6277            0.0000000000
     18830      6277  TIP3      H1             29.8997794280       26.3566775841      -12.1298463352  W2        6277            0.0000000000
     18831      6277  TIP3      H2             31.0788994280       25.4145775841      -12.2481563352  W2        6277            0.0000000000
     18832      6278  TIP3      OH2            30.5290294280       24.3025675841       -3.6352063352  W2        6278            0.0000000000
     18833      6278  TIP3      H1             30.6089394280       25.0660075841       -3.0633563352  W2        6278            0.0000000000
     18834      6278  TIP3      H2             29.9277994280       24.5818075841       -4.3256963352  W2        6278            0.0000000000
     18835      6279  TIP3      OH2            22.2770494280       26.7589275841      -10.8204063352  W2        6279            0.0000000000
     18836      6279  TIP3      H1             21.9465694280       26.3882675841      -11.6387063352  W2        6279            0.0000000000
     18837      6279  TIP3      H2             22.8654594280       26.0883275841      -10.4735763352  W2        6279            0.0000000000
     18838      6280  TIP3      OH2            23.6437994280       30.1869875841       -8.1391863352  W2        6280            0.0000000000
     18839      6280  TIP3      H1             23.5489294280       29.6082975841       -8.8957263352  W2        6280            0.0000000000
     18840      6280  TIP3      H2             24.3731594280       29.8155575841       -7.6429063352  W2        6280            0.0000000000
     18841      6281  TIP3      OH2            22.6435994280       25.5274875841       -7.1869063352  W2        6281            0.0000000000
     18842      6281  TIP3      H1             23.2088494280       25.6489075841       -7.9497863352  W2        6281            0.0000000000
     18843      6281  TIP3      H2             22.9624894280       26.1649875841       -6.5480563352  W2        6281            0.0000000000
     18844      6282  TIP3      OH2            28.9528194280       31.0306775841       -6.4528563352  W2        6282            0.0000000000
     18845      6282  TIP3      H1             28.7124794280       31.6929875841       -5.8049363352  W2        6282            0.0000000000
     18846      6282  TIP3      H2             28.7546394280       30.1961975841       -6.0278963352  W2        6282            0.0000000000
     18847      6283  TIP3      OH2            23.5236694280       29.9267575841       -2.4697163352  W2        6283            0.0000000000
     18848      6283  TIP3      H1             23.2124194280       30.7090775841       -2.0143963352  W2        6283            0.0000000000
     18849      6283  TIP3      H2             22.8736894280       29.7736675841       -3.1555163352  W2        6283            0.0000000000
     18850      6284  TIP3      OH2            29.5026294280       25.2905975841      -15.0177863352  W2        6284            0.0000000000
     18851      6284  TIP3      H1             30.0821794280       25.4406275841      -14.2708963352  W2        6284            0.0000000000
     18852      6284  TIP3      H2             29.9166294280       25.7613375841      -15.7411463352  W2        6284            0.0000000000
     18853      6285  TIP3      OH2            20.4436594280       26.1248675841       -3.2411463352  W2        6285            0.0000000000
     18854      6285  TIP3      H1             20.5139794280       26.7755475841       -2.5426463352  W2        6285            0.0000000000
     18855      6285  TIP3      H2             19.5528794280       26.2276175841       -3.5760563352  W2        6285            0.0000000000
     18856      6286  TIP3      OH2            27.2291194280       32.0274475841      -11.5824763352  W2        6286            0.0000000000
     18857      6286  TIP3      H1             27.7028794280       32.3230775841      -10.8050563352  W2        6286            0.0000000000
     18858      6286  TIP3      H2             26.6660494280       32.7656075841      -11.8155163352  W2        6286            0.0000000000
     18859      6287  TIP3      OH2            21.7632594280       31.9982575841       -1.7063363352  W2        6287            0.0000000000
     18860      6287  TIP3      H1             21.7707894280       31.8622275841       -2.6537863352  W2        6287            0.0000000000
     18861      6287  TIP3      H2             20.8472994280       31.8810675841       -1.4543363352  W2        6287            0.0000000000
     18862      6288  TIP3      OH2            33.2014694280       17.0406375841      -15.2048163352  W2        6288            0.0000000000
     18863      6288  TIP3      H1             32.3015394280       17.1795375841      -14.9097563352  W2        6288            0.0000000000
     18864      6288  TIP3      H2             33.4533094280       17.8720975841      -15.6066463352  W2        6288            0.0000000000
     18865      6289  TIP3      OH2            21.2673194280       25.8283575841      -13.2311263352  W2        6289            0.0000000000
     18866      6289  TIP3      H1             20.9754494280       26.5965275841      -13.7219963352  W2        6289            0.0000000000
     18867      6289  TIP3      H2             20.5928394280       25.1689775841      -13.3939863352  W2        6289            0.0000000000
     18868      6290  TIP3      OH2            34.3906094280       31.4068775841      -16.8284263352  W2        6290            0.0000000000
     18869      6290  TIP3      H1             34.4639594280       32.3458975841      -16.6578963352  W2        6290            0.0000000000
     18870      6290  TIP3      H2             35.2961194280       31.1017375841      -16.8846963352  W2        6290            0.0000000000
     18871      6291  TIP3      OH2            17.3603294280       28.1912775841       -4.4161463352  W2        6291            0.0000000000
     18872      6291  TIP3      H1             16.8591694280       28.1632175841       -5.2311763352  W2        6291            0.0000000000
     18873      6291  TIP3      H2             17.3656994280       27.2855975841       -4.1064163352  W2        6291            0.0000000000
     18874      6292  TIP3      OH2            17.1105994280       30.9716575841       -7.5321263352  W2        6292            0.0000000000
     18875      6292  TIP3      H1             18.0566594280       30.8273575841       -7.5511763352  W2        6292            0.0000000000
     18876      6292  TIP3      H2             16.9982294280       31.7559375841       -6.9950063352  W2        6292            0.0000000000
     18877      6293  TIP3      OH2            35.3084494280       31.6376275841       -1.8497563352  W2        6293            0.0000000000
     18878      6293  TIP3      H1             35.2591294280       30.6824375841       -1.8869963352  W2        6293            0.0000000000
     18879      6293  TIP3      H2             34.4816794280       31.9051575841       -1.4483763352  W2        6293            0.0000000000
     18880      6294  TIP3      OH2            26.2868494280       31.2115475841       -2.9736163352  W2        6294            0.0000000000
     18881      6294  TIP3      H1             26.3743094280       32.0380075841       -2.4987063352  W2        6294            0.0000000000
     18882      6294  TIP3      H2             25.4233594280       30.8819275841       -2.7246863352  W2        6294            0.0000000000
     18883      6295  TIP3      OH2            26.7014294280       34.9839175841      -13.1675563352  W2        6295            0.0000000000
     18884      6295  TIP3      H1             26.6260294280       34.8626375841      -14.1140363352  W2        6295            0.0000000000
     18885      6295  TIP3      H2             26.7342994280       35.9331875841      -13.0490963352  W2        6295            0.0000000000
     18886      6296  TIP3      OH2            20.3548094280       33.7726175841      -11.3866563352  W2        6296            0.0000000000
     18887      6296  TIP3      H1             20.5068494280       33.4246575841      -10.5080063352  W2        6296            0.0000000000
     18888      6296  TIP3      H2             19.5038494280       33.4163475841      -11.6419363352  W2        6296            0.0000000000
     18889      6297  TIP3      OH2            29.8030294280       34.1379375841      -16.1653163352  W2        6297            0.0000000000
     18890      6297  TIP3      H1             30.1778694280       33.3935475841      -16.6360563352  W2        6297            0.0000000000
     18891      6297  TIP3      H2             29.8073994280       33.8679975841      -15.2469863352  W2        6297            0.0000000000
     18892      6298  TIP3      OH2            29.4718394280       34.0636475841      -13.4160963352  W2        6298            0.0000000000
     18893      6298  TIP3      H1             28.5368194280       34.1638375841      -13.2373963352  W2        6298            0.0000000000
     18894      6298  TIP3      H2             29.7520294280       33.3542475841      -12.8377763352  W2        6298            0.0000000000
     18895      6299  TIP3      OH2            32.4604294280       23.1308775841       -1.3695363352  W2        6299            0.0000000000
     18896      6299  TIP3      H1             32.0531094280       23.6114375841       -2.0902063352  W2        6299            0.0000000000
     18897      6299  TIP3      H2             32.5009994280       22.2254775841       -1.6774563352  W2        6299            0.0000000000
     18898      6300  TIP3      OH2            19.6093794280       29.5148175841       -3.3728663352  W2        6300            0.0000000000
     18899      6300  TIP3      H1             19.8255094280       29.1533775841       -2.5132863352  W2        6300            0.0000000000
     18900      6300  TIP3      H2             18.7538494280       29.1401975841       -3.5825163352  W2        6300            0.0000000000
     18901      6301  TIP3      OH2            22.2281794280       17.9848675841       -7.3774463352  W2        6301            0.0000000000
     18902      6301  TIP3      H1             21.3665494280       17.8976875841       -7.7851563352  W2        6301            0.0000000000
     18903      6301  TIP3      H2             22.2057494280       18.8408775841       -6.9496863352  W2        6301            0.0000000000
     18904      6302  TIP3      OH2            26.8909594280       17.7069075841       -4.0027463352  W2        6302            0.0000000000
     18905      6302  TIP3      H1             27.3112694280       17.2916175841       -3.2496863352  W2        6302            0.0000000000
     18906      6302  TIP3      H2             25.9579194280       17.5282375841       -3.8855463352  W2        6302            0.0000000000
     18907      6303  TIP3      OH2            30.2174494280       21.4624275841       -3.1492963352  W2        6303            0.0000000000
     18908      6303  TIP3      H1             29.7033994280       21.3366475841       -2.3516963352  W2        6303            0.0000000000
     18909      6303  TIP3      H2             30.0619194280       22.3747375841       -3.3936763352  W2        6303            0.0000000000
     18910      6304  TIP3      OH2            30.9799394280       26.3234275841      -17.3879963352  W2        6304            0.0000000000
     18911      6304  TIP3      H1             31.0220194280       26.1008175841      -18.3179963352  W2        6304            0.0000000000
     18912      6304  TIP3      H2             31.8291494280       26.7221375841      -17.1980063352  W2        6304            0.0000000000
     18913      6305  TIP3      OH2            26.5526894280       20.1992475841      -16.7176663352  W2        6305            0.0000000000
     18914      6305  TIP3      H1             26.2991694280       20.2184075841      -15.7948563352  W2        6305            0.0000000000
     18915      6305  TIP3      H2             26.2958994280       19.3277875841      -17.0190463352  W2        6305            0.0000000000
     18916      6306  TIP3      OH2            22.3191894280       22.9503175841       -6.2824263352  W2        6306            0.0000000000
     18917      6306  TIP3      H1             21.6773994280       22.9100475841       -5.5734163352  W2        6306            0.0000000000
     18918      6306  TIP3      H2             22.3563894280       23.8767875841       -6.5201263352  W2        6306            0.0000000000
     18919      6307  TIP3      OH2            22.3160994280       23.1713275841      -11.3704263352  W2        6307            0.0000000000
     18920      6307  TIP3      H1             21.4233894280       22.8309375841      -11.4290463352  W2        6307            0.0000000000
     18921      6307  TIP3      H2             22.7667594280       22.7944175841      -12.1261063352  W2        6307            0.0000000000
     18922      6308  TIP3      OH2            27.8516494280       23.5873575841      -12.5533463352  W2        6308            0.0000000000
     18923      6308  TIP3      H1             27.4426794280       24.4022175841      -12.8448663352  W2        6308            0.0000000000
     18924      6308  TIP3      H2             28.5722694280       23.4473675841      -13.1676363352  W2        6308            0.0000000000
     18925      6309  TIP3      OH2            26.9538094280       23.7629975841       -1.0652763352  W2        6309            0.0000000000
     18926      6309  TIP3      H1             26.3911894280       23.0581575841       -0.7444963352  W2        6309            0.0000000000
     18927      6309  TIP3      H2             27.7801494280       23.6421875841       -0.5975163352  W2        6309            0.0000000000
     18928      6310  TIP3      OH2            28.8564194280       23.0333975841       -9.7393763352  W2        6310            0.0000000000
     18929      6310  TIP3      H1             28.6608694280       23.6390775841      -10.4543163352  W2        6310            0.0000000000
     18930      6310  TIP3      H2             29.0376794280       22.1999175841      -10.1737463352  W2        6310            0.0000000000
     18931      6311  TIP3      OH2            20.0692394280       23.2706675841       -4.4152263352  W2        6311            0.0000000000
     18932      6311  TIP3      H1             20.0311794280       23.6708275841       -3.5465163352  W2        6311            0.0000000000
     18933      6311  TIP3      H2             19.5783494280       22.4539075841       -4.3249363352  W2        6311            0.0000000000
     18934      6312  TIP3      OH2            23.4349794280       20.6448975841      -17.6166263352  W2        6312            0.0000000000
     18935      6312  TIP3      H1             23.0040494280       20.1999075841      -16.8868863352  W2        6312            0.0000000000
     18936      6312  TIP3      H2             22.7168494280       21.0165275841      -18.1288763352  W2        6312            0.0000000000
     18937      6313  TIP3      OH2            16.6773194280       20.3868475841      -10.5647563352  W2        6313            0.0000000000
     18938      6313  TIP3      H1             17.3080894280       20.3580575841       -9.8453663352  W2        6313            0.0000000000
     18939      6313  TIP3      H2             17.1267494280       19.9617175841      -11.2951663352  W2        6313            0.0000000000
     18940      6314  TIP3      OH2            17.9515294280       21.1330475841      -15.1407163352  W2        6314            0.0000000000
     18941      6314  TIP3      H1             18.4256994280       21.7240375841      -15.7256263352  W2        6314            0.0000000000
     18942      6314  TIP3      H2             17.2341694280       21.6633375841      -14.7937063352  W2        6314            0.0000000000
     18943      6315  TIP3      OH2            28.1203394280       24.6715275841       -5.0681363352  W2        6315            0.0000000000
     18944      6315  TIP3      H1             28.4438194280       24.0404975841       -5.7110863352  W2        6315            0.0000000000
     18945      6315  TIP3      H2             27.6802694280       24.1367475841       -4.4073963352  W2        6315            0.0000000000
     18946      6316  TIP3      OH2            24.8976294280       20.5990775841      -10.2840163352  W2        6316            0.0000000000
     18947      6316  TIP3      H1             23.9867394280       20.6557575841       -9.9954163352  W2        6316            0.0000000000
     18948      6316  TIP3      H2             25.4029194280       20.5386275841       -9.4732963352  W2        6316            0.0000000000
     18949      6317  TIP3      OH2            19.7259694280       22.2277075841      -11.4572563352  W2        6317            0.0000000000
     18950      6317  TIP3      H1             18.8367694280       22.3272575841      -11.7972963352  W2        6317            0.0000000000
     18951      6317  TIP3      H2             20.0224594280       21.3860075841      -11.8034663352  W2        6317            0.0000000000
     18952      6318  TIP3      OH2            23.3791494280       22.2279675841      -13.8007963352  W2        6318            0.0000000000
     18953      6318  TIP3      H1             24.3106994280       22.3569675841      -13.6224863352  W2        6318            0.0000000000
     18954      6318  TIP3      H2             23.1641794280       22.8973975841      -14.4503263352  W2        6318            0.0000000000
     18955      6319  TIP3      OH2            29.3028194280       19.8337075841       -7.0198363352  W2        6319            0.0000000000
     18956      6319  TIP3      H1             28.6259794280       19.9650175841       -6.3558663352  W2        6319            0.0000000000
     18957      6319  TIP3      H2             28.8173094280       19.6786575841       -7.8300663352  W2        6319            0.0000000000
     18958      6320  TIP3      OH2            22.0531694280       23.4221875841      -16.2341863352  W2        6320            0.0000000000
     18959      6320  TIP3      H1             21.5106794280       23.0425675841      -16.9254263352  W2        6320            0.0000000000
     18960      6320  TIP3      H2             22.8866594280       23.6166575841      -16.6627763352  W2        6320            0.0000000000
     18961      6321  TIP3      OH2            32.5903294280       35.5052475841       -0.7430763352  W2        6321            0.0000000000
     18962      6321  TIP3      H1             32.7901994280       35.9294375841       -1.5775463352  W2        6321            0.0000000000
     18963      6321  TIP3      H2             33.2456994280       35.8490675841       -0.1360363352  W2        6321            0.0000000000
     18964      6322  TIP3      OH2            20.1883094280       27.9793775841       -1.1350263352  W2        6322            0.0000000000
     18965      6322  TIP3      H1             20.9205494280       28.2339675841       -0.5735763352  W2        6322            0.0000000000
     18966      6322  TIP3      H2             19.4081794280       28.1839175841       -0.6194863352  W2        6322            0.0000000000
     18967      6323  TIP3      OH2            26.2175994280       23.3863775841       -8.3970563352  W2        6323            0.0000000000
     18968      6323  TIP3      H1             26.7819394280       22.8400375841       -8.9440963352  W2        6323            0.0000000000
     18969      6323  TIP3      H2             26.0699394280       22.8645675841       -7.6082963352  W2        6323            0.0000000000
     18970      6324  TIP3      OH2            21.2195694280       19.5229875841      -11.9785763352  W2        6324            0.0000000000
     18971      6324  TIP3      H1             20.9025194280       18.6205175841      -12.0140363352  W2        6324            0.0000000000
     18972      6324  TIP3      H2             22.0009794280       19.5247275841      -12.5314163352  W2        6324            0.0000000000
     18973      6325  TIP3      OH2            24.8441894280       21.7749875841       -5.9830163352  W2        6325            0.0000000000
     18974      6325  TIP3      H1             24.0087194280       22.2289375841       -5.8727763352  W2        6325            0.0000000000
     18975      6325  TIP3      H2             25.3682494280       22.0508375841       -5.2310263352  W2        6325            0.0000000000
     18976      6326  TIP3      OH2            25.3884494280       27.9877575841      -14.2983763352  W2        6326            0.0000000000
     18977      6326  TIP3      H1             24.6435494280       27.4802875841      -14.6205863352  W2        6326            0.0000000000
     18978      6326  TIP3      H2             25.2541694280       28.0365575841      -13.3518963352  W2        6326            0.0000000000
     18979      6327  TIP3      OH2            32.5383394280       27.1205775841       -5.5116163352  W2        6327            0.0000000000
     18980      6327  TIP3      H1             33.1802194280       27.5772075841       -6.0553963352  W2        6327            0.0000000000
     18981      6327  TIP3      H2             31.7080294280       27.2338175841       -5.9742063352  W2        6327            0.0000000000
     18982      6328  TIP3      OH2            29.2861294280       20.8017475841      -16.0991163352  W2        6328            0.0000000000
     18983      6328  TIP3      H1             28.3475494280       20.9133075841      -16.2502363352  W2        6328            0.0000000000
     18984      6328  TIP3      H2             29.5833394280       21.6584375841      -15.7925463352  W2        6328            0.0000000000
     18985      6329  TIP3      OH2            26.9076594280       28.1720875841       -3.0614663352  W2        6329            0.0000000000
     18986      6329  TIP3      H1             26.5622694280       27.7903275841       -2.2545063352  W2        6329            0.0000000000
     18987      6329  TIP3      H2             26.7076694280       29.1054475841       -2.9901763352  W2        6329            0.0000000000
     18988      6330  TIP3      OH2            30.0044794280       22.6690175841      -14.4383763352  W2        6330            0.0000000000
     18989      6330  TIP3      H1             30.8963794280       22.5315175841      -14.1192563352  W2        6330            0.0000000000
     18990      6330  TIP3      H2             30.0608394280       23.4596275841      -14.9750263352  W2        6330            0.0000000000
     18991      6331  TIP3      OH2            20.5132794280       27.2827575841       -8.5285863352  W2        6331            0.0000000000
     18992      6331  TIP3      H1             21.2579994280       27.2803275841       -9.1299363352  W2        6331            0.0000000000
     18993      6331  TIP3      H2             20.5909394280       26.4591375841       -8.0470763352  W2        6331            0.0000000000
     18994      6332  TIP3      OH2            27.5138594280       29.4461875841      -15.2729163352  W2        6332            0.0000000000
     18995      6332  TIP3      H1             27.2186994280       30.2729775841      -14.8914363352  W2        6332            0.0000000000
     18996      6332  TIP3      H2             26.8108594280       28.8268775841      -15.0767763352  W2        6332            0.0000000000
     18997      6333  TIP3      OH2            17.5212494280       25.7434475841       -3.2137363352  W2        6333            0.0000000000
     18998      6333  TIP3      H1             17.7441094280       25.3254075841       -2.3819863352  W2        6333            0.0000000000
     18999      6333  TIP3      H2             16.9192594280       25.1309475841       -3.6364563352  W2        6333            0.0000000000
     19000      6334  TIP3      OH2            24.5377394280       25.2604375841       -1.0007663352  W2        6334            0.0000000000
     19001      6334  TIP3      H1             24.2418194280       25.0947375841       -1.8958563352  W2        6334            0.0000000000
     19002      6334  TIP3      H2             25.4692594280       25.0404675841       -1.0113763352  W2        6334            0.0000000000
     19003      6335  TIP3      OH2            29.1580194280       30.6336375841       -3.1109663352  W2        6335            0.0000000000
     19004      6335  TIP3      H1             28.2574494280       30.8168975841       -3.3785763352  W2        6335            0.0000000000
     19005      6335  TIP3      H2             29.1921294280       30.8925675841       -2.1900863352  W2        6335            0.0000000000
     19006      6336  TIP3      OH2            34.8893494280       22.8784275841      -14.7437063352  W2        6336            0.0000000000
     19007      6336  TIP3      H1             34.3349794280       22.4822275841      -15.4159563352  W2        6336            0.0000000000
     19008      6336  TIP3      H2             34.9897094280       23.7889475841      -15.0213763352  W2        6336            0.0000000000
     19009      6337  TIP3      OH2            34.8525494280       28.6785975841       -1.9065563352  W2        6337            0.0000000000
     19010      6337  TIP3      H1             34.0013994280       28.9169775841       -2.2739163352  W2        6337            0.0000000000
     19011      6337  TIP3      H2             35.4428894280       28.6619175841       -2.6598463352  W2        6337            0.0000000000
     19012      6338  TIP3      OH2            33.1845194280       31.6644675841      -14.2784963352  W2        6338            0.0000000000
     19013      6338  TIP3      H1             32.8116294280       30.8388475841      -13.9694363352  W2        6338            0.0000000000
     19014      6338  TIP3      H2             33.4618694280       31.4814075841      -15.1761563352  W2        6338            0.0000000000
     19015      6339  TIP3      OH2            30.3449094280       26.4724175841       -7.2573063352  W2        6339            0.0000000000
     19016      6339  TIP3      H1             29.4165994280       26.2406075841       -7.2843763352  W2        6339            0.0000000000
     19017      6339  TIP3      H2             30.7960194280       25.6953975841       -7.5874263352  W2        6339            0.0000000000
     19018      6340  TIP3      OH2            22.8882194280       30.8005775841      -11.1244363352  W2        6340            0.0000000000
     19019      6340  TIP3      H1             23.4154394280       31.5740175841      -11.3245563352  W2        6340            0.0000000000
     19020      6340  TIP3      H2             22.0080694280       31.0254975841      -11.4260363352  W2        6340            0.0000000000
     19021      6341  TIP3      OH2            18.6429894280       25.6629875841      -16.5371963352  W2        6341            0.0000000000
     19022      6341  TIP3      H1             19.2589794280       26.2897075841      -16.1577163352  W2        6341            0.0000000000
     19023      6341  TIP3      H2             17.7812494280       25.9789675841      -16.2655463352  W2        6341            0.0000000000
     19024      6342  TIP3      OH2            24.3154494280       28.4635675841      -11.5480063352  W2        6342            0.0000000000
     19025      6342  TIP3      H1             24.0744494280       29.3890075841      -11.5064763352  W2        6342            0.0000000000
     19026      6342  TIP3      H2             23.5748094280       28.0046975841      -11.1516163352  W2        6342            0.0000000000
     19027      6343  TIP3      OH2            24.8301094280       32.6129275841       -5.2328963352  W2        6343            0.0000000000
     19028      6343  TIP3      H1             25.1925794280       33.4674875841       -5.4664563352  W2        6343            0.0000000000
     19029      6343  TIP3      H2             25.3616294280       32.3210875841       -4.4922663352  W2        6343            0.0000000000
     19030      6344  TIP3      OH2            22.9985294280       33.4853275841      -12.0027863352  W2        6344            0.0000000000
     19031      6344  TIP3      H1             22.0485794280       33.5910675841      -11.9514563352  W2        6344            0.0000000000
     19032      6344  TIP3      H2             23.3503394280       34.3060675841      -11.6580363352  W2        6344            0.0000000000
     19033      6345  TIP3      OH2            28.3741894280       28.7119975841       -5.5323363352  W2        6345            0.0000000000
     19034      6345  TIP3      H1             27.9483194280       28.4841675841       -4.7059363352  W2        6345            0.0000000000
     19035      6345  TIP3      H2             28.9547694280       27.9731775841       -5.7148063352  W2        6345            0.0000000000
     19036      6346  TIP3      OH2            30.5770794280       29.6410475841      -16.4584363352  W2        6346            0.0000000000
     19037      6346  TIP3      H1             30.9303894280       29.2610275841      -15.6540863352  W2        6346            0.0000000000
     19038      6346  TIP3      H2             29.6284294280       29.5475275841      -16.3715063352  W2        6346            0.0000000000
     19039      6347  TIP3      OH2            31.0326094280       33.2639475841       -3.0628563352  W2        6347            0.0000000000
     19040      6347  TIP3      H1             30.4309294280       32.7082375841       -3.5582263352  W2        6347            0.0000000000
     19041      6347  TIP3      H2             31.3139794280       33.9309275841       -3.6891163352  W2        6347            0.0000000000
     19042      6348  TIP3      OH2            35.0805194280       34.1202975841      -16.2574163352  W2        6348            0.0000000000
     19043      6348  TIP3      H1             35.8243094280       34.7063475841      -16.3972563352  W2        6348            0.0000000000
     19044      6348  TIP3      H2             34.3863294280       34.6888775841      -15.9241763352  W2        6348            0.0000000000
     19045      6349  TIP3      OH2            19.1551994280       20.4967175841       -3.6555963352  W2        6349            0.0000000000
     19046      6349  TIP3      H1             18.2624294280       20.8352575841       -3.7231963352  W2        6349            0.0000000000
     19047      6349  TIP3      H2             19.0564794280       19.6413275841       -3.2375163352  W2        6349            0.0000000000
     19048      6350  TIP3      OH2            31.4430094280       28.3132475841      -14.2316463352  W2        6350            0.0000000000
     19049      6350  TIP3      H1             31.1657694280       27.5851775841      -13.6755363352  W2        6350            0.0000000000
     19050      6350  TIP3      H2             32.3703094280       28.4324475841      -14.0263863352  W2        6350            0.0000000000
     19051      6351  TIP3      OH2            18.8063994280       32.3011575841       -5.2206563352  W2        6351            0.0000000000
     19052      6351  TIP3      H1             19.0234294280       31.3693975841       -5.2516863352  W2        6351            0.0000000000
     19053      6351  TIP3      H2             19.0527494280       32.5756575841       -4.3373763352  W2        6351            0.0000000000
     19054      6352  TIP3      OH2            24.6678594280       30.7526575841      -18.0114363352  W2        6352            0.0000000000
     19055      6352  TIP3      H1             24.9068394280       30.0044675841      -18.5585463352  W2        6352            0.0000000000
     19056      6352  TIP3      H2             24.3989894280       30.3648275841      -17.1786563352  W2        6352            0.0000000000
     19057      6353  TIP3      OH2            23.6049194280       30.3230375841      -15.5551763352  W2        6353            0.0000000000
     19058      6353  TIP3      H1             23.7517194280       29.8030175841      -14.7650863352  W2        6353            0.0000000000
     19059      6353  TIP3      H2             23.6020894280       31.2297975841      -15.2485863352  W2        6353            0.0000000000
     19060      6354  TIP3      OH2            20.0580294280       27.5753675841      -15.0446363352  W2        6354            0.0000000000
     19061      6354  TIP3      H1             19.3719594280       27.9276175841      -14.4776663352  W2        6354            0.0000000000
     19062      6354  TIP3      H2             20.5808194280       28.3383275841      -15.2912063352  W2        6354            0.0000000000
     19063      6355  TIP3      OH2            27.8895394280       20.2377475841       -4.7657363352  W2        6355            0.0000000000
     19064      6355  TIP3      H1             28.5883294280       20.3116175841       -4.1157663352  W2        6355            0.0000000000
     19065      6355  TIP3      H2             27.5086794280       19.3732475841       -4.6114463352  W2        6355            0.0000000000
     19066      6356  TIP3      OH2            28.6740294280       19.8899175841      -13.6685063352  W2        6356            0.0000000000
     19067      6356  TIP3      H1             28.8938594280       20.3614575841      -14.4719663352  W2        6356            0.0000000000
     19068      6356  TIP3      H2             29.2324294280       20.2841775841      -12.9984463352  W2        6356            0.0000000000
     19069      6357  TIP3      OH2            26.3426394280       32.0203975841      -14.8057563352  W2        6357            0.0000000000
     19070      6357  TIP3      H1             25.5262494280       32.5173675841      -14.7533263352  W2        6357            0.0000000000
     19071      6357  TIP3      H2             26.8722694280       32.4957475841      -15.4458763352  W2        6357            0.0000000000
     19072      6358  TIP3      OH2            25.8740194280       21.6177975841      -12.8336663352  W2        6358            0.0000000000
     19073      6358  TIP3      H1             26.6862794280       22.1221175841      -12.7874963352  W2        6358            0.0000000000
     19074      6358  TIP3      H2             25.6293194280       21.4727675841      -11.9197063352  W2        6358            0.0000000000
     19075      6359  TIP3      OH2            26.4096594280       22.6040675841       -3.6490063352  W2        6359            0.0000000000
     19076      6359  TIP3      H1             26.5286894280       23.1776075841       -2.8919663352  W2        6359            0.0000000000
     19077      6359  TIP3      H2             27.0651194280       21.9160075841       -3.5342263352  W2        6359            0.0000000000
     19078      6360  TIP3      OH2            26.7576894280       18.6990975841      -11.8955563352  W2        6360            0.0000000000
     19079      6360  TIP3      H1             26.4110394280       19.3161575841      -11.2511263352  W2        6360            0.0000000000
     19080      6360  TIP3      H2             27.4163794280       19.1996675841      -12.3770063352  W2        6360            0.0000000000
     19081      6361  TIP3      OH2            23.6809494280       33.0641175841      -14.8240663352  W2        6361            0.0000000000
     19082      6361  TIP3      H1             23.8418194280       33.8638675841      -15.3248063352  W2        6361            0.0000000000
     19083      6361  TIP3      H2             23.4837294280       33.3707175841      -13.9390063352  W2        6361            0.0000000000
     19084      6362  TIP3      OH2            22.4153894280       19.7620375841      -15.2083063352  W2        6362            0.0000000000
     19085      6362  TIP3      H1             22.3318694280       20.6503475841      -14.8616663352  W2        6362            0.0000000000
     19086      6362  TIP3      H2             23.3054194280       19.4967075841      -14.9766263352  W2        6362            0.0000000000
     19087      6363  TIP3      OH2            32.6142394280       20.5110975841       -2.8140363352  W2        6363            0.0000000000
     19088      6363  TIP3      H1             31.6978194280       20.7732675841       -2.9016663352  W2        6363            0.0000000000
     19089      6363  TIP3      H2             32.9497394280       20.5079975841       -3.7105063352  W2        6363            0.0000000000
     19090      6364  TIP3      OH2            31.2163394280       24.2611975841       -8.7183063352  W2        6364            0.0000000000
     19091      6364  TIP3      H1             30.4187794280       23.8462175841       -9.0468063352  W2        6364            0.0000000000
     19092      6364  TIP3      H2             31.6614494280       23.5705675841       -8.2272563352  W2        6364            0.0000000000
     19093      6365  TIP3      OH2            20.6739194280       30.1892575841      -16.1478563352  W2        6365            0.0000000000
     19094      6365  TIP3      H1             21.2660694280       30.8887375841      -15.8716163352  W2        6365            0.0000000000
     19095      6365  TIP3      H2             21.1332194280       29.7562075841      -16.8673963352  W2        6365            0.0000000000
     19096      6366  TIP3      OH2            18.9898394280       22.8535575841      -17.0319163352  W2        6366            0.0000000000
     19097      6366  TIP3      H1             18.9450994280       23.7928675841      -16.8532163352  W2        6366            0.0000000000
     19098      6366  TIP3      H2             18.1021594280       22.6180475841      -17.3017063352  W2        6366            0.0000000000
     19099      6367  TIP3      OH2            32.3027994280       33.5174475841       -7.0959563352  W2        6367            0.0000000000
     19100      6367  TIP3      H1             32.1472294280       34.1958875841       -7.7530263352  W2        6367            0.0000000000
     19101      6367  TIP3      H2             33.2354394280       33.5893775841       -6.8928963352  W2        6367            0.0000000000
     19102      6368  TIP3      OH2            19.7980394280       17.6352175841       -8.3588163352  W2        6368            0.0000000000
     19103      6368  TIP3      H1             19.5690194280       17.6944675841       -9.2863163352  W2        6368            0.0000000000
     19104      6368  TIP3      H2             19.3553794280       16.8437675841       -8.0524063352  W2        6368            0.0000000000
     19105      6369  TIP3      OH2            18.7283694280       31.5759275841      -12.1982363352  W2        6369            0.0000000000
     19106      6369  TIP3      H1             17.8962294280       32.0481975841      -12.1710963352  W2        6369            0.0000000000
     19107      6369  TIP3      H2             19.2741994280       32.0856875841      -12.7969263352  W2        6369            0.0000000000
     19108      6370  TIP3      OH2            18.0167394280       34.1882975841       -0.8684363352  W2        6370            0.0000000000
     19109      6370  TIP3      H1             18.5569594280       33.9716975841       -0.1085163352  W2        6370            0.0000000000
     19110      6370  TIP3      H2             17.5355394280       33.3828975841       -1.0581863352  W2        6370            0.0000000000
     19111      6371  TIP3      OH2            22.6140794280       33.1077375841        0.7519836648  W2        6371            0.0000000000
     19112      6371  TIP3      H1             23.3817994280       32.6488175841        1.0929036648  W2        6371            0.0000000000
     19113      6371  TIP3      H2             22.5926994280       32.8817175841       -0.1778963352  W2        6371            0.0000000000
     19114      6372  TIP3      OH2            26.7060394280       32.6157975841      -17.8728363352  W2        6372            0.0000000000
     19115      6372  TIP3      H1             26.0621394280       31.9846575841      -17.5514663352  W2        6372            0.0000000000
     19116      6372  TIP3      H2             27.4678694280       32.0845975841      -18.1044863352  W2        6372            0.0000000000
     19117      6373  TIP3      OH2            29.1909494280       31.4878475841       -0.5188663352  W2        6373            0.0000000000
     19118      6373  TIP3      H1             28.8398994280       30.6311475841       -0.2758263352  W2        6373            0.0000000000
     19119      6373  TIP3      H2             29.9172694280       31.6305175841        0.0880336648  W2        6373            0.0000000000
     19120      6374  TIP3      OH2            31.3103294280       32.4327875841      -17.6390363352  W2        6374            0.0000000000
     19121      6374  TIP3      H1             31.5933694280       31.6383075841      -17.1863463352  W2        6374            0.0000000000
     19122      6374  TIP3      H2             32.0501194280       32.6658875841      -18.1999263352  W2        6374            0.0000000000
     19123      6375  TIP3      OH2            17.9236894280       27.9987075841        0.0859936648  W2        6375            0.0000000000
     19124      6375  TIP3      H1             18.0677394280       27.0967775841       -0.2003363352  W2        6375            0.0000000000
     19125      6375  TIP3      H2             17.1514294280       28.2849175841       -0.4017763352  W2        6375            0.0000000000
     19126      6376  TIP3      OH2            22.2650594280       28.3422775841      -17.7815463352  W2        6376            0.0000000000
     19127      6376  TIP3      H1             22.3294694280       27.5482375841      -17.2509063352  W2        6376            0.0000000000
     19128      6376  TIP3      H2             22.9179794280       28.2235575841      -18.4713463352  W2        6376            0.0000000000
     19129      6377  TIP3      OH2            24.5792994280       27.9685175841       -0.4813663352  W2        6377            0.0000000000
     19130      6377  TIP3      H1             24.2506794280       28.2393275841       -1.3386263352  W2        6377            0.0000000000
     19131      6377  TIP3      H2             24.7311194280       27.0274975841       -0.5688663352  W2        6377            0.0000000000
     19132      6378  TIP3      OH2            27.6173994280       29.3894475841      -18.0457463352  W2        6378            0.0000000000
     19133      6378  TIP3      H1             27.3488094280       29.5696575841      -17.1448563352  W2        6378            0.0000000000
     19134      6378  TIP3      H2             27.4109594280       28.4640675841      -18.1771663352  W2        6378            0.0000000000
     19135      6379  TIP3      OH2            30.3138194280       27.8842475841       -3.0981363352  W2        6379            0.0000000000
     19136      6379  TIP3      H1             31.0592994280       28.4726175841       -3.2177363352  W2        6379            0.0000000000
     19137      6379  TIP3      H2             29.5564994280       28.4662175841       -3.0348263352  W2        6379            0.0000000000
     19138      6380  TIP3      OH2            18.7563394280       25.1990375841       -0.4940763352  W2        6380            0.0000000000
     19139      6380  TIP3      H1             19.1644594280       24.3416975841       -0.6150163352  W2        6380            0.0000000000
     19140      6380  TIP3      H2             18.4960994280       25.2131675841        0.4269536648  W2        6380            0.0000000000
     19141      6381  TIP3      OH2            23.4144394280       26.3148975841      -15.4757463352  W2        6381            0.0000000000
     19142      6381  TIP3      H1             22.9546394280       25.8307275841      -14.7898963352  W2        6381            0.0000000000
     19143      6381  TIP3      H2             23.6693094280       25.6464375841      -16.1116963352  W2        6381            0.0000000000
     19144      6382  TIP3      OH2            22.7033694280       24.2076075841       -3.1197863352  W2        6382            0.0000000000
     19145      6382  TIP3      H1             22.0849794280       24.8822675841       -2.8393163352  W2        6382            0.0000000000
     19146      6382  TIP3      H2             23.0474894280       24.5289975841       -3.9531663352  W2        6382            0.0000000000
     19147      6383  TIP3      OH2            24.4854794280       24.5580775841      -17.2134263352  W2        6383            0.0000000000
     19148      6383  TIP3      H1             24.3049794280       24.4031975841      -18.1405963352  W2        6383            0.0000000000
     19149      6383  TIP3      H2             25.4355294280       24.6659475841      -17.1686363352  W2        6383            0.0000000000
     19150      6384  TIP3      OH2            27.7231894280       26.6791375841        0.1576936648  W2        6384            0.0000000000
     19151      6384  TIP3      H1             28.6763094280       26.7630475841        0.1302936648  W2        6384            0.0000000000
     19152      6384  TIP3      H2             27.5626494280       25.9673175841        0.7771836648  W2        6384            0.0000000000
     19153      6385  TIP3      OH2            33.8753094280       26.9124975841      -17.7676163352  W2        6385            0.0000000000
     19154      6385  TIP3      H1             33.6017894280       26.4880475841      -18.5807863352  W2        6385            0.0000000000
     19155      6385  TIP3      H2             33.9147194280       27.8439475841      -17.9845763352  W2        6385            0.0000000000
     19156      6386  TIP3      OH2            23.0427394280       21.5626875841       -2.0374763352  W2        6386            0.0000000000
     19157      6386  TIP3      H1             23.1928294280       20.8338175841       -2.6395063352  W2        6386            0.0000000000
     19158      6386  TIP3      H2             23.0449794280       22.3398575841       -2.5962563352  W2        6386            0.0000000000
     19159      6387  TIP3      OH2            23.4553094280       19.9322675841       -4.5447363352  W2        6387            0.0000000000
     19160      6387  TIP3      H1             23.9910594280       20.3839375841       -5.1968063352  W2        6387            0.0000000000
     19161      6387  TIP3      H2             22.6032694280       19.8242475841       -4.9673263352  W2        6387            0.0000000000
     19162      6388  TIP3      OH2            25.0371494280       25.3718875841       -4.3052163352  W2        6388            0.0000000000
     19163      6388  TIP3      H1             25.7876294280       25.2156375841       -4.8784363352  W2        6388            0.0000000000
     19164      6388  TIP3      H2             24.6979794280       26.2235475841       -4.5806663352  W2        6388            0.0000000000
     19165      6389  TIP3      OH2            29.4527694280       23.1870675841        0.7233136648  W2        6389            0.0000000000
     19166      6389  TIP3      H1             29.6448994280       22.2560075841        0.6117636648  W2        6389            0.0000000000
     19167      6389  TIP3      H2             30.3103994280       23.6120175841        0.7128536648  W2        6389            0.0000000000
     19168      6390  TIP3      OH2            30.7694894280       25.9755875841       -1.1994163352  W2        6390            0.0000000000
     19169      6390  TIP3      H1             30.4879894280       26.6850475841       -1.7770363352  W2        6390            0.0000000000
     19170      6390  TIP3      H2             31.7119194280       25.9028875841       -1.3502963352  W2        6390            0.0000000000
     19171      6391  TIP3      OH2            21.5213694280       22.7610375841       -0.1259163352  W2        6391            0.0000000000
     19172      6391  TIP3      H1             20.7542694280       22.2285175841       -0.3361563352  W2        6391            0.0000000000
     19173      6391  TIP3      H2             22.2002694280       22.4510775841       -0.7252863352  W2        6391            0.0000000000
     19174      6392  TIP3      OH2            24.2608594280       17.3888375841       -4.1133763352  W2        6392            0.0000000000
     19175      6392  TIP3      H1             24.1628194280       18.3351575841       -4.2187563352  W2        6392            0.0000000000
     19176      6392  TIP3      H2             23.5184794280       17.0162175841       -4.5890263352  W2        6392            0.0000000000
     19177      6393  TIP3      OH2            25.5249094280       21.7103775841       -0.5495363352  W2        6393            0.0000000000
     19178      6393  TIP3      H1             25.2894494280       21.4910475841        0.3519536648  W2        6393            0.0000000000
     19179      6393  TIP3      H2             24.7415994280       21.5034975841       -1.0592863352  W2        6393            0.0000000000
     19180      6394  TIP3      OH2            28.2405694280       20.8377275841       -1.4741863352  W2        6394            0.0000000000
     19181      6394  TIP3      H1             27.2931094280       20.8696975841       -1.3418563352  W2        6394            0.0000000000
     19182      6394  TIP3      H2             28.5532394280       20.2124375841       -0.8203663352  W2        6394            0.0000000000
     19183      6395  TIP3      OH2            29.8747194280       19.4718375841        0.5310036648  W2        6395            0.0000000000
     19184      6395  TIP3      H1             29.7778994280       18.5195675841        0.5251936648  W2        6395            0.0000000000
     19185      6395  TIP3      H2             29.5530294280       19.7405175841        1.3915536648  W2        6395            0.0000000000
     19186      6396  TIP3      OH2            19.7016494280       20.6814175841       -0.4214463352  W2        6396            0.0000000000
     19187      6396  TIP3      H1             19.9133894280       19.9750275841       -1.0316963352  W2        6396            0.0000000000
     19188      6396  TIP3      H2             19.5903994280       20.2440175841        0.4226736648  W2        6396            0.0000000000
     19189      6397  TIP3      OH2            24.4826694280       16.6825775841       -1.4420963352  W2        6397            0.0000000000
     19190      6397  TIP3      H1             25.1945094280       16.0427975841       -1.4561863352  W2        6397            0.0000000000
     19191      6397  TIP3      H2             24.3817094280       16.9494075841       -2.3557863352  W2        6397            0.0000000000
     19192      6398  TIP3      OH2            24.8364194280       18.3654175841        0.6115336648  W2        6398            0.0000000000
     19193      6398  TIP3      H1             24.7046394280       17.8897975841       -0.2086163352  W2        6398            0.0000000000
     19194      6398  TIP3      H2             24.2371594280       19.1097775841        0.5562436648  W2        6398            0.0000000000
     19195      6399  TIP3      OH2            24.3826494280       35.2484475841      -16.2120663352  W2        6399            0.0000000000
     19196      6399  TIP3      H1             25.3157194280       35.4063175841      -16.0682263352  W2        6399            0.0000000000
     19197      6399  TIP3      H2             24.1185294280       35.9237475841      -16.8369163352  W2        6399            0.0000000000
     19198      6400  TIP3      OH2            17.9511394280       29.8848275841      -16.7292563352  W2        6400            0.0000000000
     19199      6400  TIP3      H1             18.8650594280       29.9637175841      -16.4558663352  W2        6400            0.0000000000
     19200      6400  TIP3      H2             17.9584494280       29.1977875841      -17.3956963352  W2        6400            0.0000000000
     19201      6401  TIP3      OH2            16.6001994280       35.2776775841      -11.6518663352  W2        6401            0.0000000000
     19202      6401  TIP3      H1             15.9529094280       34.8158475841      -12.1847463352  W2        6401            0.0000000000
     19203      6401  TIP3      H2             16.9546594280       34.6060075841      -11.0692463352  W2        6401            0.0000000000
     19204      6402  TIP3      OH2            17.4701194280       33.3583775841       -9.8472463352  W2        6402            0.0000000000
     19205      6402  TIP3      H1             17.1357994280       32.4781075841       -9.6752263352  W2        6402            0.0000000000
     19206      6402  TIP3      H2             17.6923594280       33.7038775841       -8.9826863352  W2        6402            0.0000000000
     19207      6403  TIP3      OH2            35.0185994280       34.1680175841       -6.8667663352  W2        6403            0.0000000000
     19208      6403  TIP3      H1             34.9972694280       34.3528575841       -5.9278263352  W2        6403            0.0000000000
     19209      6403  TIP3      H2             35.7092194280       34.7364175841       -7.2076263352  W2        6403            0.0000000000
     19210      6404  TIP3      OH2            34.5818894280       33.7351275841       -3.9448563352  W2        6404            0.0000000000
     19211      6404  TIP3      H1             34.0947594280       32.9995375841       -4.3161163352  W2        6404            0.0000000000
     19212      6404  TIP3      H2             35.1311594280       33.3415175841       -3.2669163352  W2        6404            0.0000000000
     19213      6405  TIP3      OH2            33.0326194280       29.5249375841        0.6931736648  W2        6405            0.0000000000
     19214      6405  TIP3      H1             32.1667294280       29.4199075841        1.0874036648  W2        6405            0.0000000000
     19215      6405  TIP3      H2             33.4092094280       30.2832675841        1.1396436648  W2        6405            0.0000000000
     19216      6406  TIP3      OH2            34.3335894280       27.7813075841      -13.7925763352  W2        6406            0.0000000000
     19217      6406  TIP3      H1             35.1837294280       28.2023975841      -13.6654163352  W2        6406            0.0000000000
     19218      6406  TIP3      H2             34.3390994280       27.0413175841      -13.1854363352  W2        6406            0.0000000000
     19219      6407  TIP3      OH2            34.7281494280       25.8350475841      -11.9690063352  W2        6407            0.0000000000
     19220      6407  TIP3      H1             34.0016094280       25.3553075841      -11.5712463352  W2        6407            0.0000000000
     19221      6407  TIP3      H2             35.3094794280       26.0405175841      -11.2368463352  W2        6407            0.0000000000
     19222      6408  TIP3      OH2            34.4872694280       28.6197975841       -7.0212463352  W2        6408            0.0000000000
     19223      6408  TIP3      H1             35.3206894280       28.2417975841       -7.3018863352  W2        6408            0.0000000000
     19224      6408  TIP3      H2             34.5992994280       29.5629175841       -7.1403363352  W2        6408            0.0000000000
     19225      6409  TIP3      OH2            32.9734994280       31.4975475841       -4.7144063352  W2        6409            0.0000000000
     19226      6409  TIP3      H1             32.3260294280       31.8226975841       -4.0888863352  W2        6409            0.0000000000
     19227      6409  TIP3      H2             32.4558994280       31.0573175841       -5.3885763352  W2        6409            0.0000000000
     19228      6410  TIP3      OH2            34.9964594280       25.7358975841      -15.5778763352  W2        6410            0.0000000000
     19229      6410  TIP3      H1             34.4745694280       26.0923075841      -16.2967863352  W2        6410            0.0000000000
     19230      6410  TIP3      H2             34.9633794280       26.4106775841      -14.8997863352  W2        6410            0.0000000000
     19231      6411  TIP3      OH2            33.3453594280       22.9754575841      -17.0271663352  W2        6411            0.0000000000
     19232      6411  TIP3      H1             33.4417994280       23.6421575841      -17.7071963352  W2        6411            0.0000000000
     19233      6411  TIP3      H2             33.2053194280       22.1600875841      -17.5086163352  W2        6411            0.0000000000
     19234      6412  TIP3      OH2            32.5148294280       24.3556975841      -11.4061363352  W2        6412            0.0000000000
     19235      6412  TIP3      H1             32.3647094280       23.4105575841      -11.4263563352  W2        6412            0.0000000000
     19236      6412  TIP3      H2             32.1612794280       24.6368375841      -10.5622263352  W2        6412            0.0000000000
     19237      6413  TIP3      OH2            17.5500694280       26.4339175841       -7.3957563352  W2        6413            0.0000000000
     19238      6413  TIP3      H1             17.7343594280       26.3520875841       -8.3314663352  W2        6413            0.0000000000
     19239      6413  TIP3      H2             18.3993594280       26.3096175841       -6.9721163352  W2        6413            0.0000000000
     19240      6414  TIP3      OH2            33.3711194280       26.3260275841       -1.7673063352  W2        6414            0.0000000000
     19241      6414  TIP3      H1             33.9538494280       25.5912575841       -1.5755863352  W2        6414            0.0000000000
     19242      6414  TIP3      H2             33.9350494280       27.0980575841       -1.7207263352  W2        6414            0.0000000000
     19243      6415  TIP3      OH2            34.8678294280       24.2286075841       -1.0827663352  W2        6415            0.0000000000
     19244      6415  TIP3      H1             34.0044994280       23.8498175841       -1.2482963352  W2        6415            0.0000000000
     19245      6415  TIP3      H2             35.4721994280       23.4900875841       -1.1571863352  W2        6415            0.0000000000
     19246      6416  TIP3      OH2            32.5927394280       20.3834375841      -17.9096163352  W2        6416            0.0000000000
     19247      6416  TIP3      H1             33.2033194280       20.0121175841      -17.2727963352  W2        6416            0.0000000000
     19248      6416  TIP3      H2             31.7558894280       19.9621275841      -17.7136163352  W2        6416            0.0000000000
     19249      6417  TIP3      OH2            32.2253094280       21.9382775841      -12.9436263352  W2        6417            0.0000000000
     19250      6417  TIP3      H1             32.5050194280       21.0313175841      -12.8194563352  W2        6417            0.0000000000
     19251      6417  TIP3      H2             32.9844794280       22.3724275841      -13.3327063352  W2        6417            0.0000000000
     19252      6418  TIP3      OH2            32.8371394280       22.5200175841       -7.5077363352  W2        6418            0.0000000000
     19253      6418  TIP3      H1             33.7699394280       22.7320075841       -7.5421363352  W2        6418            0.0000000000
     19254      6418  TIP3      H2             32.6018894280       22.6212275841       -6.5854363352  W2        6418            0.0000000000
     19255      6419  TIP3      OH2            32.8663294280       23.2565475841       -4.7317963352  W2        6419            0.0000000000
     19256      6419  TIP3      H1             32.0234594280       23.5245875841       -4.3658163352  W2        6419            0.0000000000
     19257      6419  TIP3      H2             33.3087594280       24.0787375841       -4.9426863352  W2        6419            0.0000000000
     19258      6420  TIP3      OH2            17.1475494280       21.7044175841       -1.2548763352  W2        6420            0.0000000000
     19259      6420  TIP3      H1             18.0670394280       21.5822475841       -1.0185663352  W2        6420            0.0000000000
     19260      6420  TIP3      H2             16.6979994280       20.9543875841       -0.8655263352  W2        6420            0.0000000000
     19261      6421  TIP3      OH2            35.1494894280       17.2365675841        0.6217036648  W2        6421            0.0000000000
     19262      6421  TIP3      H1             35.4991894280       16.5829175841        0.0161736648  W2        6421            0.0000000000
     19263      6421  TIP3      H2             35.2964394280       18.0739775841        0.1819636648  W2        6421            0.0000000000
     19264      6422  TIP3      OH2            32.8387894280       19.2012075841      -12.8954263352  W2        6422            0.0000000000
     19265      6422  TIP3      H1             33.0212894280       18.7523575841      -12.0699263352  W2        6422            0.0000000000
     19266      6422  TIP3      H2             32.2390794280       18.6166475841      -13.3589663352  W2        6422            0.0000000000
     19267      6423  TIP3      OH2            18.3687994280       20.0165775841       -8.3635863352  W2        6423            0.0000000000
     19268      6423  TIP3      H1             18.8139594280       19.2248275841       -8.0616163352  W2        6423            0.0000000000
     19269      6423  TIP3      H2             18.8350994280       20.7330975841       -7.9330263352  W2        6423            0.0000000000
     19270      6424  TIP3      OH2            16.6728294280       23.0158775841       -7.2945663352  W2        6424            0.0000000000
     19271      6424  TIP3      H1             17.1648094280       22.7949275841       -8.0853663352  W2        6424            0.0000000000
     19272      6424  TIP3      H2             17.0349194280       23.8562175841       -7.0136163352  W2        6424            0.0000000000
     19273      6425  TIP3      OH2            34.6692094280       19.3460275841       -1.0291663352  W2        6425            0.0000000000
     19274      6425  TIP3      H1             33.7517794280       19.6167375841       -1.0648163352  W2        6425            0.0000000000
     19275      6425  TIP3      H2             34.7921494280       18.8108675841       -1.8131963352  W2        6425            0.0000000000
     19276      6426  TIP3      OH2            34.7054094280       19.2690175841      -16.3673963352  W2        6426            0.0000000000
     19277      6426  TIP3      H1             35.1176694280       18.5475875841      -16.8425963352  W2        6426            0.0000000000
     19278      6426  TIP3      H2             35.3870594280       19.9384775841      -16.3089663352  W2        6426            0.0000000000
     19279      6427  TIP3      OH2            16.9864794280       19.2737875841      -13.2403263352  W2        6427            0.0000000000
     19280      6427  TIP3      H1             16.0613194280       19.4824475841      -13.3697763352  W2        6427            0.0000000000
     19281      6427  TIP3      H2             17.4404694280       19.7578675841      -13.9300963352  W2        6427            0.0000000000
     19282      6428  TIP3      OH2            31.7571994280       34.2579575841      -11.2945863352  W2        6428            0.0000000000
     19283      6428  TIP3      H1             32.4094894280       33.9101675841      -11.9026763352  W2        6428            0.0000000000
     19284      6428  TIP3      H2             32.2675794280       34.7462775841      -10.6486163352  W2        6428            0.0000000000
     19285      6429  TIP3      OH2            16.9500194280       18.0116875841       -4.8960763352  W2        6429            0.0000000000
     19286      6429  TIP3      H1             16.2850694280       17.7657175841       -4.2529863352  W2        6429            0.0000000000
     19287      6429  TIP3      H2             16.5071494280       18.6337275841       -5.4732763352  W2        6429            0.0000000000
     19288      6430  TIP3      OH2            19.1419494280       31.1870975841       -0.7514963352  W2        6430            0.0000000000
     19289      6430  TIP3      H1             18.3211994280       31.3617475841       -1.2120263352  W2        6430            0.0000000000
     19290      6430  TIP3      H2             18.8897294280       31.1135675841        0.1689436648  W2        6430            0.0000000000
     19291      6431  TIP3      OH2            22.0962394280       32.1612175841       -4.4930963352  W2        6431            0.0000000000
     19292      6431  TIP3      H1             21.6713494280       32.9710675841       -4.7756363352  W2        6431            0.0000000000
     19293      6431  TIP3      H2             23.0005194280       32.2466275841       -4.7951163352  W2        6431            0.0000000000
     19294      6432  TIP3      OH2            26.4073794280       33.5602175841       -1.5337263352  W2        6432            0.0000000000
     19295      6432  TIP3      H1             26.5921294280       33.2268275841       -0.6556963352  W2        6432            0.0000000000
     19296      6432  TIP3      H2             27.2538294280       33.8700775841       -1.8558063352  W2        6432            0.0000000000
     19297      6433  TIP3      OH2            28.7524194280       34.8461075841       -2.2895863352  W2        6433            0.0000000000
     19298      6433  TIP3      H1             29.4293094280       34.2133375841       -2.5296663352  W2        6433            0.0000000000
     19299      6433  TIP3      H2             29.0742994280       35.2471575841       -1.4822563352  W2        6433            0.0000000000
     19300      6434  TIP3      OH2            33.6697994280       17.4356575841       -3.2100863352  W2        6434            0.0000000000
     19301      6434  TIP3      H1             32.8571494280       17.7606875841       -3.5976163352  W2        6434            0.0000000000
     19302      6434  TIP3      H2             33.9026494280       16.6755075841       -3.7431763352  W2        6434            0.0000000000
     19303      6435  TIP3      OH2            19.4979094280       35.4176075841       -4.4455663352  W2        6435            0.0000000000
     19304      6435  TIP3      H1             18.7775494280       35.8577075841       -4.8967963352  W2        6435            0.0000000000
     19305      6435  TIP3      H2             19.1323094280       35.1670775841       -3.5971663352  W2        6435            0.0000000000
     19306      6436  TIP3      OH2            21.9651694280       35.0179975841       -5.4158463352  W2        6436            0.0000000000
     19307      6436  TIP3      H1             21.1003894280       35.0898475841       -5.0118363352  W2        6436            0.0000000000
     19308      6436  TIP3      H2             21.9100694280       35.5647275841       -6.1995963352  W2        6436            0.0000000000
     19309      6437  TIP3      OH2            26.6757294280       34.9058875841       -6.2402463352  W2        6437            0.0000000000
     19310      6437  TIP3      H1             26.2191294280       35.4348575841       -6.8944063352  W2        6437            0.0000000000
     19311      6437  TIP3      H2             26.8385294280       35.5090275841       -5.5150163352  W2        6437            0.0000000000
     19312      6438  TIP3      OH2            29.0033594280       33.7838475841       -5.2952163352  W2        6438            0.0000000000
     19313      6438  TIP3      H1             28.0987294280       33.9488675841       -5.5610063352  W2        6438            0.0000000000
     19314      6438  TIP3      H2             29.4322194280       34.6370675841       -5.3608763352  W2        6438            0.0000000000
     19315      6439  TIP3      OH2            31.6075494280       35.3537575841       -5.0004363352  W2        6439            0.0000000000
     19316      6439  TIP3      H1             31.4257494280       36.2696475841       -5.2109463352  W2        6439            0.0000000000
     19317      6439  TIP3      H2             31.7843294280       34.9434675841       -5.8469763352  W2        6439            0.0000000000
     19318      6440  TIP3      OH2            18.9127194280       34.0408575841       -7.5353863352  W2        6440            0.0000000000
     19319      6440  TIP3      H1             18.8943194280       33.6153675841       -6.6781563352  W2        6440            0.0000000000
     19320      6440  TIP3      H2             19.7175094280       33.7223575841       -7.9441663352  W2        6440            0.0000000000
     19321      6441  TIP3      OH2            21.0540294280       32.7507275841       -8.8803963352  W2        6441            0.0000000000
     19322      6441  TIP3      H1             20.8350994280       31.8344675841       -8.7107963352  W2        6441            0.0000000000
     19323      6441  TIP3      H2             21.8782494280       32.8907675841       -8.4142563352  W2        6441            0.0000000000
     19324      6442  TIP3      OH2            23.5912794280       33.2206575841       -8.0315963352  W2        6442            0.0000000000
     19325      6442  TIP3      H1             23.8038494280       32.3325575841       -8.3185063352  W2        6442            0.0000000000
     19326      6442  TIP3      H2             23.6557894280       33.1864275841       -7.0771963352  W2        6442            0.0000000000
     19327      6443  TIP3      OH2            27.0996494280       18.8847175841       -8.8872663352  W2        6443            0.0000000000
     19328      6443  TIP3      H1             26.4253294280       18.2552775841       -8.6316863352  W2        6443            0.0000000000
     19329      6443  TIP3      H2             27.6635694280       18.4006075841       -9.4904763352  W2        6443            0.0000000000
     19330      6444  TIP3      OH2            32.2423694280       16.9921175841       -8.7745563352  W2        6444            0.0000000000
     19331      6444  TIP3      H1             32.8461294280       17.5396575841       -9.2764563352  W2        6444            0.0000000000
     19332      6444  TIP3      H2             31.3725694280       17.3111575841       -9.0151463352  W2        6444            0.0000000000
     19333      6445  TIP3      OH2            33.9694094280       18.1309875841      -10.4414663352  W2        6445            0.0000000000
     19334      6445  TIP3      H1             34.5811594280       17.6165575841      -10.9681063352  W2        6445            0.0000000000
     19335      6445  TIP3      H2             34.3517494280       19.0081975841      -10.4180263352  W2        6445            0.0000000000
     19336      6446  TIP3      OH2            19.4263994280       17.5187475841      -11.0652763352  W2        6446            0.0000000000
     19337      6446  TIP3      H1             18.6493794280       17.2842375841      -11.5726863352  W2        6446            0.0000000000
     19338      6446  TIP3      H2             19.9567594280       16.7219575841      -11.0564763352  W2        6446            0.0000000000
     19339      6447  TIP3      OH2            18.2627394280       17.3165575841      -15.2616663352  W2        6447            0.0000000000
     19340      6447  TIP3      H1             18.7018094280       17.9276075841      -15.8533163352  W2        6447            0.0000000000
     19341      6447  TIP3      H2             17.6289794280       17.8549675841      -14.7876663352  W2        6447            0.0000000000
     19342      6448  TIP3      OH2            24.0056594280       17.4454575841      -11.2519663352  W2        6448            0.0000000000
     19343      6448  TIP3      H1             24.8799994280       17.8338875841      -11.2815363352  W2        6448            0.0000000000
     19344      6448  TIP3      H2             23.8697394280       17.2302375841      -10.3292463352  W2        6448            0.0000000000
     19345      6449  TIP3      OH2            29.5624994280       17.4754375841       -9.6027963352  W2        6449            0.0000000000
     19346      6449  TIP3      H1             29.6386594280       17.5705975841      -10.5521963352  W2        6449            0.0000000000
     19347      6449  TIP3      H2             29.2874194280       16.5677275841       -9.4738863352  W2        6449            0.0000000000
     19348      6450  TIP3      OH2            30.9157594280       17.5012175841      -13.9102963352  W2        6450            0.0000000000
     19349      6450  TIP3      H1             30.2128694280       18.1161375841      -14.1201563352  W2        6450            0.0000000000
     19350      6450  TIP3      H2             30.4708994280       16.6638875841      -13.7792063352  W2        6450            0.0000000000
     19351      6451  TIP3      OH2            18.1636894280       33.2647775841      -14.3641563352  W2        6451            0.0000000000
     19352      6451  TIP3      H1             17.4786794280       33.2266675841      -15.0316463352  W2        6451            0.0000000000
     19353      6451  TIP3      H2             18.1674094280       34.1775375841      -14.0759463352  W2        6451            0.0000000000
     19354      6452  TIP3      OH2            20.1236494280       19.2327075841      -16.8192563352  W2        6452            0.0000000000
     19355      6452  TIP3      H1             20.6149894280       18.6029475841      -17.3467063352  W2        6452            0.0000000000
     19356      6452  TIP3      H2             20.7472794280       19.5286475841      -16.1561363352  W2        6452            0.0000000000
     19357      6453  TIP3      OH2            25.1496594280       19.5258575841      -14.3622063352  W2        6453            0.0000000000
     19358      6453  TIP3      H1             25.3277894280       18.8791775841      -13.6793463352  W2        6453            0.0000000000
     19359      6453  TIP3      H2             25.0962794280       20.3596275841      -13.8950963352  W2        6453            0.0000000000
     19360      6454  TIP3      OH2            27.0280394280       34.4742675841      -15.9665363352  W2        6454            0.0000000000
     19361      6454  TIP3      H1             27.8940594280       34.8410075841      -16.1447163352  W2        6454            0.0000000000
     19362      6454  TIP3      H2             26.7813194280       34.0350675841      -16.7804563352  W2        6454            0.0000000000
     19363      6455  TIP3      OH2            33.7369994280       34.0372975841      -13.2874263352  W2        6455            0.0000000000
     19364      6455  TIP3      H1             33.5427094280       33.2895075841      -13.8524663352  W2        6455            0.0000000000
     19365      6455  TIP3      H2             33.6980094280       34.7953075841      -13.8706363352  W2        6455            0.0000000000
     19366      6456  TIP3      OH2            19.3841994280       18.0329375841       -1.5476563352  W2        6456            0.0000000000
     19367      6456  TIP3      H1             19.0180194280       17.2671975841       -1.1051863352  W2        6456            0.0000000000
     19368      6456  TIP3      H2             20.2970494280       18.0619575841       -1.2611463352  W2        6456            0.0000000000
     19369      6457  TIP3      OH2            21.3572794280       17.3833775841       -0.0119463352  W2        6457            0.0000000000
     19370      6457  TIP3      H1             22.2556394280       17.1093975841       -0.1966063352  W2        6457            0.0000000000
     19371      6457  TIP3      H2             20.9705894280       16.6409775841        0.4523136648  W2        6457            0.0000000000
     19372      6458  TIP3      OH2            19.9818094280       34.1848575841      -17.3389463352  W2        6458            0.0000000000
     19373      6458  TIP3      H1             19.7142694280       34.4711475841      -16.4656363352  W2        6458            0.0000000000
     19374      6458  TIP3      H2             20.7530694280       33.6387775841      -17.1866963352  W2        6458            0.0000000000
     19375      6459  TIP3      OH2            29.7785094280       16.7159075841        0.1703336648  W2        6459            0.0000000000
     19376      6459  TIP3      H1             29.8552294280       16.2899775841        1.0241036648  W2        6459            0.0000000000
     19377      6459  TIP3      H2             30.6721694280       16.7293775841       -0.1723163352  W2        6459            0.0000000000
     19378      6460  TIP3      OH2            32.9546194280       32.7885375841       -1.1372463352  W2        6460            0.0000000000
     19379      6460  TIP3      H1             32.1728094280       32.6023375841       -1.6571863352  W2        6460            0.0000000000
     19380      6460  TIP3      H2             32.8826094280       33.7179675841       -0.9199963352  W2        6460            0.0000000000
     19381      6461  TIP3      OH2            47.3606594280       26.6749775841      -11.1065263352  W2        6461            0.0000000000
     19382      6461  TIP3      H1             47.4497694280       27.6187975841      -11.2388163352  W2        6461            0.0000000000
     19383      6461  TIP3      H2             46.7224194280       26.3996175841      -11.7645863352  W2        6461            0.0000000000
     19384      6462  TIP3      OH2            46.2937894280       25.9300475841       -7.6877063352  W2        6462            0.0000000000
     19385      6462  TIP3      H1             46.2555394280       25.2836775841       -6.9827463352  W2        6462            0.0000000000
     19386      6462  TIP3      H2             45.9714394280       25.4634875841       -8.4588363352  W2        6462            0.0000000000
     19387      6463  TIP3      OH2            38.6622894280       25.5442575841       -6.0947163352  W2        6463            0.0000000000
     19388      6463  TIP3      H1             38.7034994280       24.9185875841       -5.3714763352  W2        6463            0.0000000000
     19389      6463  TIP3      H2             39.3650594280       26.1681175841       -5.9126763352  W2        6463            0.0000000000
     19390      6464  TIP3      OH2            49.9998094280       28.8690875841       -9.3861963352  W2        6464            0.0000000000
     19391      6464  TIP3      H1             49.5590794280       28.1486875841       -8.9356363352  W2        6464            0.0000000000
     19392      6464  TIP3      H2             49.9867794280       29.5898075841       -8.7564263352  W2        6464            0.0000000000
     19393      6465  TIP3      OH2            39.5855994280       29.9941475841       -7.5598063352  W2        6465            0.0000000000
     19394      6465  TIP3      H1             39.2161194280       29.1921975841       -7.9293763352  W2        6465            0.0000000000
     19395      6465  TIP3      H2             40.5267094280       29.8256375841       -7.5134663352  W2        6465            0.0000000000
     19396      6466  TIP3      OH2            36.1956494280       23.6544075841      -12.1669263352  W2        6466            0.0000000000
     19397      6466  TIP3      H1             35.7479894280       24.5002775841      -12.1852763352  W2        6466            0.0000000000
     19398      6466  TIP3      H2             35.6347694280       23.0748275841      -12.6824163352  W2        6466            0.0000000000
     19399      6467  TIP3      OH2            36.9062594280       25.8163675841      -10.0411263352  W2        6467            0.0000000000
     19400      6467  TIP3      H1             37.1196094280       25.0465275841       -9.5138263352  W2        6467            0.0000000000
     19401      6467  TIP3      H2             37.6440194280       25.9060375841      -10.6443663352  W2        6467            0.0000000000
     19402      6468  TIP3      OH2            47.1113594280       33.9732575841       -9.1741563352  W2        6468            0.0000000000
     19403      6468  TIP3      H1             47.7309994280       33.2967275841       -9.4472363352  W2        6468            0.0000000000
     19404      6468  TIP3      H2             46.9030994280       33.7553375841       -8.2656663352  W2        6468            0.0000000000
     19405      6469  TIP3      OH2            44.6832294280       28.3621875841       -7.2816063352  W2        6469            0.0000000000
     19406      6469  TIP3      H1             44.9870194280       27.6763275841       -7.8761963352  W2        6469            0.0000000000
     19407      6469  TIP3      H2             45.4046294280       28.4810575841       -6.6638063352  W2        6469            0.0000000000
     19408      6470  TIP3      OH2            53.3462094280       19.9637175841       -6.4209863352  W2        6470            0.0000000000
     19409      6470  TIP3      H1             53.3954294280       20.5738375841       -5.6850763352  W2        6470            0.0000000000
     19410      6470  TIP3      H2             53.7717194280       20.4248075841       -7.1438763352  W2        6470            0.0000000000
     19411      6471  TIP3      OH2            47.8239294280       22.7564275841       -6.9541263352  W2        6471            0.0000000000
     19412      6471  TIP3      H1             47.9665194280       21.8101275841       -6.9339663352  W2        6471            0.0000000000
     19413      6471  TIP3      H2             47.7178294280       22.9634075841       -7.8826363352  W2        6471            0.0000000000
     19414      6472  TIP3      OH2            40.9787594280       20.8580675841       -9.6816463352  W2        6472            0.0000000000
     19415      6472  TIP3      H1             41.0218694280       21.7179175841      -10.1000163352  W2        6472            0.0000000000
     19416      6472  TIP3      H2             40.5211694280       20.3055375841      -10.3153263352  W2        6472            0.0000000000
     19417      6473  TIP3      OH2            48.7010294280       20.9886275841      -11.2808163352  W2        6473            0.0000000000
     19418      6473  TIP3      H1             49.3474594280       20.6599475841      -10.6560563352  W2        6473            0.0000000000
     19419      6473  TIP3      H2             49.2109694280       21.5065275841      -11.9036763352  W2        6473            0.0000000000
     19420      6474  TIP3      OH2            37.5989094280       23.2546475841       -8.9195063352  W2        6474            0.0000000000
     19421      6474  TIP3      H1             38.2525694280       22.7048175841       -8.4874963352  W2        6474            0.0000000000
     19422      6474  TIP3      H2             37.6228394280       22.9805475841       -9.8363063352  W2        6474            0.0000000000
     19423      6475  TIP3      OH2            42.7553594280       24.8047775841       -9.7043563352  W2        6475            0.0000000000
     19424      6475  TIP3      H1             43.3714594280       24.2783175841       -9.1949563352  W2        6475            0.0000000000
     19425      6475  TIP3      H2             42.1692394280       24.1646475841      -10.1079963352  W2        6475            0.0000000000
     19426      6476  TIP3      OH2            53.7376694280       21.4416375841       -4.1850063352  W2        6476            0.0000000000
     19427      6476  TIP3      H1             53.0491294280       22.0997075841       -4.2803463352  W2        6476            0.0000000000
     19428      6476  TIP3      H2             53.7531294280       21.2444275841       -3.2484663352  W2        6476            0.0000000000
     19429      6477  TIP3      OH2            39.7889494280       19.7759075841       -5.6075663352  W2        6477            0.0000000000
     19430      6477  TIP3      H1             39.5701194280       20.3059675841       -6.3739663352  W2        6477            0.0000000000
     19431      6477  TIP3      H2             39.1210394280       20.0024575841       -4.9604263352  W2        6477            0.0000000000
     19432      6478  TIP3      OH2            47.1579294280       29.2760175841      -12.0636563352  W2        6478            0.0000000000
     19433      6478  TIP3      H1             46.8624394280       28.9532475841      -12.9149663352  W2        6478            0.0000000000
     19434      6478  TIP3      H2             46.8337094280       30.1756875841      -12.0223963352  W2        6478            0.0000000000
     19435      6479  TIP3      OH2            42.3580894280       27.4514775841       -5.3201963352  W2        6479            0.0000000000
     19436      6479  TIP3      H1             41.6179994280       28.0496275841       -5.2166763352  W2        6479            0.0000000000
     19437      6479  TIP3      H2             43.0720394280       28.0054375841       -5.6358363352  W2        6479            0.0000000000
     19438      6480  TIP3      OH2            50.4648694280       20.2795575841       -9.3002263352  W2        6480            0.0000000000
     19439      6480  TIP3      H1             50.2496694280       19.5138975841       -8.7676263352  W2        6480            0.0000000000
     19440      6480  TIP3      H2             51.1206094280       20.7520175841       -8.7873763352  W2        6480            0.0000000000
     19441      6481  TIP3      OH2            39.3826794280       21.6680875841       -7.6553463352  W2        6481            0.0000000000
     19442      6481  TIP3      H1             39.9963094280       22.3008475841       -7.2821063352  W2        6481            0.0000000000
     19443      6481  TIP3      H2             39.8947494280       21.1955875841       -8.3116563352  W2        6481            0.0000000000
     19444      6482  TIP3      OH2            40.7655194280       29.4157775841       -4.5330463352  W2        6482            0.0000000000
     19445      6482  TIP3      H1             40.7602794280       30.2951275841       -4.9111163352  W2        6482            0.0000000000
     19446      6482  TIP3      H2             39.9119294280       29.3321875841       -4.1080563352  W2        6482            0.0000000000
     19447      6483  TIP3      OH2            36.8866094280       29.0865675841      -13.7511163352  W2        6483            0.0000000000
     19448      6483  TIP3      H1             36.6146994280       29.3156675841      -14.6398263352  W2        6483            0.0000000000
     19449      6483  TIP3      H2             36.9321794280       29.9244475841      -13.2905863352  W2        6483            0.0000000000
     19450      6484  TIP3      OH2            50.5115794280       30.7081575841       -7.0382663352  W2        6484            0.0000000000
     19451      6484  TIP3      H1             49.5699494280       30.7665475841       -6.8765763352  W2        6484            0.0000000000
     19452      6484  TIP3      H2             50.7881894280       31.6142075841       -7.1752963352  W2        6484            0.0000000000
     19453      6485  TIP3      OH2            50.8122794280       18.9946875841       -5.6208763352  W2        6485            0.0000000000
     19454      6485  TIP3      H1             50.0761994280       19.6053975841       -5.6587463352  W2        6485            0.0000000000
     19455      6485  TIP3      H2             51.4956794280       19.4095875841       -6.1472363352  W2        6485            0.0000000000
     19456      6486  TIP3      OH2            43.8154194280       17.0814175841       -8.1550763352  W2        6486            0.0000000000
     19457      6486  TIP3      H1             43.6978394280       16.1330175841       -8.2092463352  W2        6486            0.0000000000
     19458      6486  TIP3      H2             42.9604294280       17.4140275841       -7.8819663352  W2        6486            0.0000000000
     19459      6487  TIP3      OH2            48.7636994280       32.4895075841      -10.4131063352  W2        6487            0.0000000000
     19460      6487  TIP3      H1             49.1889294280       31.7822975841      -10.8981463352  W2        6487            0.0000000000
     19461      6487  TIP3      H2             49.0806994280       33.2907775841      -10.8298863352  W2        6487            0.0000000000
     19462      6488  TIP3      OH2            49.9233494280       30.3903575841      -11.9044463352  W2        6488            0.0000000000
     19463      6488  TIP3      H1             49.6658294280       29.7003675841      -12.5158563352  W2        6488            0.0000000000
     19464      6488  TIP3      H2             49.9944294280       29.9474775841      -11.0588563352  W2        6488            0.0000000000
     19465      6489  TIP3      OH2            51.6093694280       28.9570275841       -3.4270963352  W2        6489            0.0000000000
     19466      6489  TIP3      H1             51.7489994280       28.3652775841       -4.1663963352  W2        6489            0.0000000000
     19467      6489  TIP3      H2             51.7766494280       29.8296175841       -3.7832163352  W2        6489            0.0000000000
     19468      6490  TIP3      OH2            46.0819094280       25.9189775841      -13.6544963352  W2        6490            0.0000000000
     19469      6490  TIP3      H1             45.3704594280       26.4539475841      -14.0064463352  W2        6490            0.0000000000
     19470      6490  TIP3      H2             46.7728694280       25.9741875841      -14.3146063352  W2        6490            0.0000000000
     19471      6491  TIP3      OH2            46.1358294280       24.3764075841      -16.6159963352  W2        6491            0.0000000000
     19472      6491  TIP3      H1             46.8368194280       24.3990975841      -15.9645963352  W2        6491            0.0000000000
     19473      6491  TIP3      H2             46.4381194280       23.7483775841      -17.2720663352  W2        6491            0.0000000000
     19474      6492  TIP3      OH2            53.4512994280       25.2968275841       -5.3610563352  W2        6492            0.0000000000
     19475      6492  TIP3      H1             52.7987094280       25.9913875841       -5.2719663352  W2        6492            0.0000000000
     19476      6492  TIP3      H2             53.9163294280       25.5069175841       -6.1708963352  W2        6492            0.0000000000
     19477      6493  TIP3      OH2            49.4876794280       26.1283075841      -12.7029063352  W2        6493            0.0000000000
     19478      6493  TIP3      H1             48.7557794280       26.3566775841      -12.1298463352  W2        6493            0.0000000000
     19479      6493  TIP3      H2             49.9348994280       25.4145775841      -12.2481563352  W2        6493            0.0000000000
     19480      6494  TIP3      OH2            49.3850294280       24.3025675841       -3.6352063352  W2        6494            0.0000000000
     19481      6494  TIP3      H1             49.4649394280       25.0660075841       -3.0633563352  W2        6494            0.0000000000
     19482      6494  TIP3      H2             48.7837994280       24.5818075841       -4.3256963352  W2        6494            0.0000000000
     19483      6495  TIP3      OH2            41.1330494280       26.7589275841      -10.8204063352  W2        6495            0.0000000000
     19484      6495  TIP3      H1             40.8025694280       26.3882675841      -11.6387063352  W2        6495            0.0000000000
     19485      6495  TIP3      H2             41.7214594280       26.0883275841      -10.4735763352  W2        6495            0.0000000000
     19486      6496  TIP3      OH2            42.4997994280       30.1869875841       -8.1391863352  W2        6496            0.0000000000
     19487      6496  TIP3      H1             42.4049294280       29.6082975841       -8.8957263352  W2        6496            0.0000000000
     19488      6496  TIP3      H2             43.2291594280       29.8155575841       -7.6429063352  W2        6496            0.0000000000
     19489      6497  TIP3      OH2            41.4995994280       25.5274875841       -7.1869063352  W2        6497            0.0000000000
     19490      6497  TIP3      H1             42.0648494280       25.6489075841       -7.9497863352  W2        6497            0.0000000000
     19491      6497  TIP3      H2             41.8184894280       26.1649875841       -6.5480563352  W2        6497            0.0000000000
     19492      6498  TIP3      OH2            47.8088194280       31.0306775841       -6.4528563352  W2        6498            0.0000000000
     19493      6498  TIP3      H1             47.5684794280       31.6929875841       -5.8049363352  W2        6498            0.0000000000
     19494      6498  TIP3      H2             47.6106394280       30.1961975841       -6.0278963352  W2        6498            0.0000000000
     19495      6499  TIP3      OH2            42.3796694280       29.9267575841       -2.4697163352  W2        6499            0.0000000000
     19496      6499  TIP3      H1             42.0684194280       30.7090775841       -2.0143963352  W2        6499            0.0000000000
     19497      6499  TIP3      H2             41.7296894280       29.7736675841       -3.1555163352  W2        6499            0.0000000000
     19498      6500  TIP3      OH2            48.3586294280       25.2905975841      -15.0177863352  W2        6500            0.0000000000
     19499      6500  TIP3      H1             48.9381794280       25.4406275841      -14.2708963352  W2        6500            0.0000000000
     19500      6500  TIP3      H2             48.7726294280       25.7613375841      -15.7411463352  W2        6500            0.0000000000
     19501      6501  TIP3      OH2            39.2996594280       26.1248675841       -3.2411463352  W2        6501            0.0000000000
     19502      6501  TIP3      H1             39.3699794280       26.7755475841       -2.5426463352  W2        6501            0.0000000000
     19503      6501  TIP3      H2             38.4088794280       26.2276175841       -3.5760563352  W2        6501            0.0000000000
     19504      6502  TIP3      OH2            46.0851194280       32.0274475841      -11.5824763352  W2        6502            0.0000000000
     19505      6502  TIP3      H1             46.5588794280       32.3230775841      -10.8050563352  W2        6502            0.0000000000
     19506      6502  TIP3      H2             45.5220494280       32.7656075841      -11.8155163352  W2        6502            0.0000000000
     19507      6503  TIP3      OH2            40.6192594280       31.9982575841       -1.7063363352  W2        6503            0.0000000000
     19508      6503  TIP3      H1             40.6267894280       31.8622275841       -2.6537863352  W2        6503            0.0000000000
     19509      6503  TIP3      H2             39.7032994280       31.8810675841       -1.4543363352  W2        6503            0.0000000000
     19510      6504  TIP3      OH2            52.0574694280       17.0406375841      -15.2048163352  W2        6504            0.0000000000
     19511      6504  TIP3      H1             51.1575394280       17.1795375841      -14.9097563352  W2        6504            0.0000000000
     19512      6504  TIP3      H2             52.3093094280       17.8720975841      -15.6066463352  W2        6504            0.0000000000
     19513      6505  TIP3      OH2            40.1233194280       25.8283575841      -13.2311263352  W2        6505            0.0000000000
     19514      6505  TIP3      H1             39.8314494280       26.5965275841      -13.7219963352  W2        6505            0.0000000000
     19515      6505  TIP3      H2             39.4488394280       25.1689775841      -13.3939863352  W2        6505            0.0000000000
     19516      6506  TIP3      OH2            53.2466094280       31.4068775841      -16.8284263352  W2        6506            0.0000000000
     19517      6506  TIP3      H1             53.3199594280       32.3458975841      -16.6578963352  W2        6506            0.0000000000
     19518      6506  TIP3      H2             54.1521194280       31.1017375841      -16.8846963352  W2        6506            0.0000000000
     19519      6507  TIP3      OH2            36.2163294280       28.1912775841       -4.4161463352  W2        6507            0.0000000000
     19520      6507  TIP3      H1             35.7151694280       28.1632175841       -5.2311763352  W2        6507            0.0000000000
     19521      6507  TIP3      H2             36.2216994280       27.2855975841       -4.1064163352  W2        6507            0.0000000000
     19522      6508  TIP3      OH2            35.9665994280       30.9716575841       -7.5321263352  W2        6508            0.0000000000
     19523      6508  TIP3      H1             36.9126594280       30.8273575841       -7.5511763352  W2        6508            0.0000000000
     19524      6508  TIP3      H2             35.8542294280       31.7559375841       -6.9950063352  W2        6508            0.0000000000
     19525      6509  TIP3      OH2            54.1644494280       31.6376275841       -1.8497563352  W2        6509            0.0000000000
     19526      6509  TIP3      H1             54.1151294280       30.6824375841       -1.8869963352  W2        6509            0.0000000000
     19527      6509  TIP3      H2             53.3376794280       31.9051575841       -1.4483763352  W2        6509            0.0000000000
     19528      6510  TIP3      OH2            45.1428494280       31.2115475841       -2.9736163352  W2        6510            0.0000000000
     19529      6510  TIP3      H1             45.2303094280       32.0380075841       -2.4987063352  W2        6510            0.0000000000
     19530      6510  TIP3      H2             44.2793594280       30.8819275841       -2.7246863352  W2        6510            0.0000000000
     19531      6511  TIP3      OH2            45.5574294280       34.9839175841      -13.1675563352  W2        6511            0.0000000000
     19532      6511  TIP3      H1             45.4820294280       34.8626375841      -14.1140363352  W2        6511            0.0000000000
     19533      6511  TIP3      H2             45.5902994280       35.9331875841      -13.0490963352  W2        6511            0.0000000000
     19534      6512  TIP3      OH2            39.2108094280       33.7726175841      -11.3866563352  W2        6512            0.0000000000
     19535      6512  TIP3      H1             39.3628494280       33.4246575841      -10.5080063352  W2        6512            0.0000000000
     19536      6512  TIP3      H2             38.3598494280       33.4163475841      -11.6419363352  W2        6512            0.0000000000
     19537      6513  TIP3      OH2            48.6590294280       34.1379375841      -16.1653163352  W2        6513            0.0000000000
     19538      6513  TIP3      H1             49.0338694280       33.3935475841      -16.6360563352  W2        6513            0.0000000000
     19539      6513  TIP3      H2             48.6633994280       33.8679975841      -15.2469863352  W2        6513            0.0000000000
     19540      6514  TIP3      OH2            48.3278394280       34.0636475841      -13.4160963352  W2        6514            0.0000000000
     19541      6514  TIP3      H1             47.3928194280       34.1638375841      -13.2373963352  W2        6514            0.0000000000
     19542      6514  TIP3      H2             48.6080294280       33.3542475841      -12.8377763352  W2        6514            0.0000000000
     19543      6515  TIP3      OH2            51.3164294280       23.1308775841       -1.3695363352  W2        6515            0.0000000000
     19544      6515  TIP3      H1             50.9091094280       23.6114375841       -2.0902063352  W2        6515            0.0000000000
     19545      6515  TIP3      H2             51.3569994280       22.2254775841       -1.6774563352  W2        6515            0.0000000000
     19546      6516  TIP3      OH2            38.4653794280       29.5148175841       -3.3728663352  W2        6516            0.0000000000
     19547      6516  TIP3      H1             38.6815094280       29.1533775841       -2.5132863352  W2        6516            0.0000000000
     19548      6516  TIP3      H2             37.6098494280       29.1401975841       -3.5825163352  W2        6516            0.0000000000
     19549      6517  TIP3      OH2            41.0841794280       17.9848675841       -7.3774463352  W2        6517            0.0000000000
     19550      6517  TIP3      H1             40.2225494280       17.8976875841       -7.7851563352  W2        6517            0.0000000000
     19551      6517  TIP3      H2             41.0617494280       18.8408775841       -6.9496863352  W2        6517            0.0000000000
     19552      6518  TIP3      OH2            45.7469594280       17.7069075841       -4.0027463352  W2        6518            0.0000000000
     19553      6518  TIP3      H1             46.1672694280       17.2916175841       -3.2496863352  W2        6518            0.0000000000
     19554      6518  TIP3      H2             44.8139194280       17.5282375841       -3.8855463352  W2        6518            0.0000000000
     19555      6519  TIP3      OH2            49.0734494280       21.4624275841       -3.1492963352  W2        6519            0.0000000000
     19556      6519  TIP3      H1             48.5593994280       21.3366475841       -2.3516963352  W2        6519            0.0000000000
     19557      6519  TIP3      H2             48.9179194280       22.3747375841       -3.3936763352  W2        6519            0.0000000000
     19558      6520  TIP3      OH2            49.8359394280       26.3234275841      -17.3879963352  W2        6520            0.0000000000
     19559      6520  TIP3      H1             49.8780194280       26.1008175841      -18.3179963352  W2        6520            0.0000000000
     19560      6520  TIP3      H2             50.6851494280       26.7221375841      -17.1980063352  W2        6520            0.0000000000
     19561      6521  TIP3      OH2            45.4086894280       20.1992475841      -16.7176663352  W2        6521            0.0000000000
     19562      6521  TIP3      H1             45.1551694280       20.2184075841      -15.7948563352  W2        6521            0.0000000000
     19563      6521  TIP3      H2             45.1518994280       19.3277875841      -17.0190463352  W2        6521            0.0000000000
     19564      6522  TIP3      OH2            41.1751894280       22.9503175841       -6.2824263352  W2        6522            0.0000000000
     19565      6522  TIP3      H1             40.5333994280       22.9100475841       -5.5734163352  W2        6522            0.0000000000
     19566      6522  TIP3      H2             41.2123894280       23.8767875841       -6.5201263352  W2        6522            0.0000000000
     19567      6523  TIP3      OH2            41.1720994280       23.1713275841      -11.3704263352  W2        6523            0.0000000000
     19568      6523  TIP3      H1             40.2793894280       22.8309375841      -11.4290463352  W2        6523            0.0000000000
     19569      6523  TIP3      H2             41.6227594280       22.7944175841      -12.1261063352  W2        6523            0.0000000000
     19570      6524  TIP3      OH2            46.7076494280       23.5873575841      -12.5533463352  W2        6524            0.0000000000
     19571      6524  TIP3      H1             46.2986794280       24.4022175841      -12.8448663352  W2        6524            0.0000000000
     19572      6524  TIP3      H2             47.4282694280       23.4473675841      -13.1676363352  W2        6524            0.0000000000
     19573      6525  TIP3      OH2            45.8098094280       23.7629975841       -1.0652763352  W2        6525            0.0000000000
     19574      6525  TIP3      H1             45.2471894280       23.0581575841       -0.7444963352  W2        6525            0.0000000000
     19575      6525  TIP3      H2             46.6361494280       23.6421875841       -0.5975163352  W2        6525            0.0000000000
     19576      6526  TIP3      OH2            47.7124194280       23.0333975841       -9.7393763352  W2        6526            0.0000000000
     19577      6526  TIP3      H1             47.5168694280       23.6390775841      -10.4543163352  W2        6526            0.0000000000
     19578      6526  TIP3      H2             47.8936794280       22.1999175841      -10.1737463352  W2        6526            0.0000000000
     19579      6527  TIP3      OH2            38.9252394280       23.2706675841       -4.4152263352  W2        6527            0.0000000000
     19580      6527  TIP3      H1             38.8871794280       23.6708275841       -3.5465163352  W2        6527            0.0000000000
     19581      6527  TIP3      H2             38.4343494280       22.4539075841       -4.3249363352  W2        6527            0.0000000000
     19582      6528  TIP3      OH2            42.2909794280       20.6448975841      -17.6166263352  W2        6528            0.0000000000
     19583      6528  TIP3      H1             41.8600494280       20.1999075841      -16.8868863352  W2        6528            0.0000000000
     19584      6528  TIP3      H2             41.5728494280       21.0165275841      -18.1288763352  W2        6528            0.0000000000
     19585      6529  TIP3      OH2            35.5333194280       20.3868475841      -10.5647563352  W2        6529            0.0000000000
     19586      6529  TIP3      H1             36.1640894280       20.3580575841       -9.8453663352  W2        6529            0.0000000000
     19587      6529  TIP3      H2             35.9827494280       19.9617175841      -11.2951663352  W2        6529            0.0000000000
     19588      6530  TIP3      OH2            36.8075294280       21.1330475841      -15.1407163352  W2        6530            0.0000000000
     19589      6530  TIP3      H1             37.2816994280       21.7240375841      -15.7256263352  W2        6530            0.0000000000
     19590      6530  TIP3      H2             36.0901694280       21.6633375841      -14.7937063352  W2        6530            0.0000000000
     19591      6531  TIP3      OH2            46.9763394280       24.6715275841       -5.0681363352  W2        6531            0.0000000000
     19592      6531  TIP3      H1             47.2998194280       24.0404975841       -5.7110863352  W2        6531            0.0000000000
     19593      6531  TIP3      H2             46.5362694280       24.1367475841       -4.4073963352  W2        6531            0.0000000000
     19594      6532  TIP3      OH2            43.7536294280       20.5990775841      -10.2840163352  W2        6532            0.0000000000
     19595      6532  TIP3      H1             42.8427394280       20.6557575841       -9.9954163352  W2        6532            0.0000000000
     19596      6532  TIP3      H2             44.2589194280       20.5386275841       -9.4732963352  W2        6532            0.0000000000
     19597      6533  TIP3      OH2            38.5819694280       22.2277075841      -11.4572563352  W2        6533            0.0000000000
     19598      6533  TIP3      H1             37.6927694280       22.3272575841      -11.7972963352  W2        6533            0.0000000000
     19599      6533  TIP3      H2             38.8784594280       21.3860075841      -11.8034663352  W2        6533            0.0000000000
     19600      6534  TIP3      OH2            42.2351494280       22.2279675841      -13.8007963352  W2        6534            0.0000000000
     19601      6534  TIP3      H1             43.1666994280       22.3569675841      -13.6224863352  W2        6534            0.0000000000
     19602      6534  TIP3      H2             42.0201794280       22.8973975841      -14.4503263352  W2        6534            0.0000000000
     19603      6535  TIP3      OH2            48.1588194280       19.8337075841       -7.0198363352  W2        6535            0.0000000000
     19604      6535  TIP3      H1             47.4819794280       19.9650175841       -6.3558663352  W2        6535            0.0000000000
     19605      6535  TIP3      H2             47.6733094280       19.6786575841       -7.8300663352  W2        6535            0.0000000000
     19606      6536  TIP3      OH2            40.9091694280       23.4221875841      -16.2341863352  W2        6536            0.0000000000
     19607      6536  TIP3      H1             40.3666794280       23.0425675841      -16.9254263352  W2        6536            0.0000000000
     19608      6536  TIP3      H2             41.7426594280       23.6166575841      -16.6627763352  W2        6536            0.0000000000
     19609      6537  TIP3      OH2            51.4463294280       35.5052475841       -0.7430763352  W2        6537            0.0000000000
     19610      6537  TIP3      H1             51.6461994280       35.9294375841       -1.5775463352  W2        6537            0.0000000000
     19611      6537  TIP3      H2             52.1016994280       35.8490675841       -0.1360363352  W2        6537            0.0000000000
     19612      6538  TIP3      OH2            39.0443094280       27.9793775841       -1.1350263352  W2        6538            0.0000000000
     19613      6538  TIP3      H1             39.7765494280       28.2339675841       -0.5735763352  W2        6538            0.0000000000
     19614      6538  TIP3      H2             38.2641794280       28.1839175841       -0.6194863352  W2        6538            0.0000000000
     19615      6539  TIP3      OH2            45.0735994280       23.3863775841       -8.3970563352  W2        6539            0.0000000000
     19616      6539  TIP3      H1             45.6379394280       22.8400375841       -8.9440963352  W2        6539            0.0000000000
     19617      6539  TIP3      H2             44.9259394280       22.8645675841       -7.6082963352  W2        6539            0.0000000000
     19618      6540  TIP3      OH2            40.0755694280       19.5229875841      -11.9785763352  W2        6540            0.0000000000
     19619      6540  TIP3      H1             39.7585194280       18.6205175841      -12.0140363352  W2        6540            0.0000000000
     19620      6540  TIP3      H2             40.8569794280       19.5247275841      -12.5314163352  W2        6540            0.0000000000
     19621      6541  TIP3      OH2            43.7001894280       21.7749875841       -5.9830163352  W2        6541            0.0000000000
     19622      6541  TIP3      H1             42.8647194280       22.2289375841       -5.8727763352  W2        6541            0.0000000000
     19623      6541  TIP3      H2             44.2242494280       22.0508375841       -5.2310263352  W2        6541            0.0000000000
     19624      6542  TIP3      OH2            44.2444494280       27.9877575841      -14.2983763352  W2        6542            0.0000000000
     19625      6542  TIP3      H1             43.4995494280       27.4802875841      -14.6205863352  W2        6542            0.0000000000
     19626      6542  TIP3      H2             44.1101694280       28.0365575841      -13.3518963352  W2        6542            0.0000000000
     19627      6543  TIP3      OH2            51.3943394280       27.1205775841       -5.5116163352  W2        6543            0.0000000000
     19628      6543  TIP3      H1             52.0362194280       27.5772075841       -6.0553963352  W2        6543            0.0000000000
     19629      6543  TIP3      H2             50.5640294280       27.2338175841       -5.9742063352  W2        6543            0.0000000000
     19630      6544  TIP3      OH2            48.1421294280       20.8017475841      -16.0991163352  W2        6544            0.0000000000
     19631      6544  TIP3      H1             47.2035494280       20.9133075841      -16.2502363352  W2        6544            0.0000000000
     19632      6544  TIP3      H2             48.4393394280       21.6584375841      -15.7925463352  W2        6544            0.0000000000
     19633      6545  TIP3      OH2            45.7636594280       28.1720875841       -3.0614663352  W2        6545            0.0000000000
     19634      6545  TIP3      H1             45.4182694280       27.7903275841       -2.2545063352  W2        6545            0.0000000000
     19635      6545  TIP3      H2             45.5636694280       29.1054475841       -2.9901763352  W2        6545            0.0000000000
     19636      6546  TIP3      OH2            48.8604794280       22.6690175841      -14.4383763352  W2        6546            0.0000000000
     19637      6546  TIP3      H1             49.7523794280       22.5315175841      -14.1192563352  W2        6546            0.0000000000
     19638      6546  TIP3      H2             48.9168394280       23.4596275841      -14.9750263352  W2        6546            0.0000000000
     19639      6547  TIP3      OH2            39.3692794280       27.2827575841       -8.5285863352  W2        6547            0.0000000000
     19640      6547  TIP3      H1             40.1139994280       27.2803275841       -9.1299363352  W2        6547            0.0000000000
     19641      6547  TIP3      H2             39.4469394280       26.4591375841       -8.0470763352  W2        6547            0.0000000000
     19642      6548  TIP3      OH2            46.3698594280       29.4461875841      -15.2729163352  W2        6548            0.0000000000
     19643      6548  TIP3      H1             46.0746994280       30.2729775841      -14.8914363352  W2        6548            0.0000000000
     19644      6548  TIP3      H2             45.6668594280       28.8268775841      -15.0767763352  W2        6548            0.0000000000
     19645      6549  TIP3      OH2            36.3772494280       25.7434475841       -3.2137363352  W2        6549            0.0000000000
     19646      6549  TIP3      H1             36.6001094280       25.3254075841       -2.3819863352  W2        6549            0.0000000000
     19647      6549  TIP3      H2             35.7752594280       25.1309475841       -3.6364563352  W2        6549            0.0000000000
     19648      6550  TIP3      OH2            43.3937394280       25.2604375841       -1.0007663352  W2        6550            0.0000000000
     19649      6550  TIP3      H1             43.0978194280       25.0947375841       -1.8958563352  W2        6550            0.0000000000
     19650      6550  TIP3      H2             44.3252594280       25.0404675841       -1.0113763352  W2        6550            0.0000000000
     19651      6551  TIP3      OH2            48.0140194280       30.6336375841       -3.1109663352  W2        6551            0.0000000000
     19652      6551  TIP3      H1             47.1134494280       30.8168975841       -3.3785763352  W2        6551            0.0000000000
     19653      6551  TIP3      H2             48.0481294280       30.8925675841       -2.1900863352  W2        6551            0.0000000000
     19654      6552  TIP3      OH2            53.7453494280       22.8784275841      -14.7437063352  W2        6552            0.0000000000
     19655      6552  TIP3      H1             53.1909794280       22.4822275841      -15.4159563352  W2        6552            0.0000000000
     19656      6552  TIP3      H2             53.8457094280       23.7889475841      -15.0213763352  W2        6552            0.0000000000
     19657      6553  TIP3      OH2            53.7085494280       28.6785975841       -1.9065563352  W2        6553            0.0000000000
     19658      6553  TIP3      H1             52.8573994280       28.9169775841       -2.2739163352  W2        6553            0.0000000000
     19659      6553  TIP3      H2             54.2988894280       28.6619175841       -2.6598463352  W2        6553            0.0000000000
     19660      6554  TIP3      OH2            52.0405194280       31.6644675841      -14.2784963352  W2        6554            0.0000000000
     19661      6554  TIP3      H1             51.6676294280       30.8388475841      -13.9694363352  W2        6554            0.0000000000
     19662      6554  TIP3      H2             52.3178694280       31.4814075841      -15.1761563352  W2        6554            0.0000000000
     19663      6555  TIP3      OH2            49.2009094280       26.4724175841       -7.2573063352  W2        6555            0.0000000000
     19664      6555  TIP3      H1             48.2725994280       26.2406075841       -7.2843763352  W2        6555            0.0000000000
     19665      6555  TIP3      H2             49.6520194280       25.6953975841       -7.5874263352  W2        6555            0.0000000000
     19666      6556  TIP3      OH2            41.7442194280       30.8005775841      -11.1244363352  W2        6556            0.0000000000
     19667      6556  TIP3      H1             42.2714394280       31.5740175841      -11.3245563352  W2        6556            0.0000000000
     19668      6556  TIP3      H2             40.8640694280       31.0254975841      -11.4260363352  W2        6556            0.0000000000
     19669      6557  TIP3      OH2            37.4989894280       25.6629875841      -16.5371963352  W2        6557            0.0000000000
     19670      6557  TIP3      H1             38.1149794280       26.2897075841      -16.1577163352  W2        6557            0.0000000000
     19671      6557  TIP3      H2             36.6372494280       25.9789675841      -16.2655463352  W2        6557            0.0000000000
     19672      6558  TIP3      OH2            43.1714494280       28.4635675841      -11.5480063352  W2        6558            0.0000000000
     19673      6558  TIP3      H1             42.9304494280       29.3890075841      -11.5064763352  W2        6558            0.0000000000
     19674      6558  TIP3      H2             42.4308094280       28.0046975841      -11.1516163352  W2        6558            0.0000000000
     19675      6559  TIP3      OH2            43.6861094280       32.6129275841       -5.2328963352  W2        6559            0.0000000000
     19676      6559  TIP3      H1             44.0485794280       33.4674875841       -5.4664563352  W2        6559            0.0000000000
     19677      6559  TIP3      H2             44.2176294280       32.3210875841       -4.4922663352  W2        6559            0.0000000000
     19678      6560  TIP3      OH2            41.8545294280       33.4853275841      -12.0027863352  W2        6560            0.0000000000
     19679      6560  TIP3      H1             40.9045794280       33.5910675841      -11.9514563352  W2        6560            0.0000000000
     19680      6560  TIP3      H2             42.2063394280       34.3060675841      -11.6580363352  W2        6560            0.0000000000
     19681      6561  TIP3      OH2            47.2301894280       28.7119975841       -5.5323363352  W2        6561            0.0000000000
     19682      6561  TIP3      H1             46.8043194280       28.4841675841       -4.7059363352  W2        6561            0.0000000000
     19683      6561  TIP3      H2             47.8107694280       27.9731775841       -5.7148063352  W2        6561            0.0000000000
     19684      6562  TIP3      OH2            49.4330794280       29.6410475841      -16.4584363352  W2        6562            0.0000000000
     19685      6562  TIP3      H1             49.7863894280       29.2610275841      -15.6540863352  W2        6562            0.0000000000
     19686      6562  TIP3      H2             48.4844294280       29.5475275841      -16.3715063352  W2        6562            0.0000000000
     19687      6563  TIP3      OH2            49.8886094280       33.2639475841       -3.0628563352  W2        6563            0.0000000000
     19688      6563  TIP3      H1             49.2869294280       32.7082375841       -3.5582263352  W2        6563            0.0000000000
     19689      6563  TIP3      H2             50.1699794280       33.9309275841       -3.6891163352  W2        6563            0.0000000000
     19690      6564  TIP3      OH2            53.9365194280       34.1202975841      -16.2574163352  W2        6564            0.0000000000
     19691      6564  TIP3      H1             54.6803094280       34.7063475841      -16.3972563352  W2        6564            0.0000000000
     19692      6564  TIP3      H2             53.2423294280       34.6888775841      -15.9241763352  W2        6564            0.0000000000
     19693      6565  TIP3      OH2            38.0111994280       20.4967175841       -3.6555963352  W2        6565            0.0000000000
     19694      6565  TIP3      H1             37.1184294280       20.8352575841       -3.7231963352  W2        6565            0.0000000000
     19695      6565  TIP3      H2             37.9124794280       19.6413275841       -3.2375163352  W2        6565            0.0000000000
     19696      6566  TIP3      OH2            50.2990094280       28.3132475841      -14.2316463352  W2        6566            0.0000000000
     19697      6566  TIP3      H1             50.0217694280       27.5851775841      -13.6755363352  W2        6566            0.0000000000
     19698      6566  TIP3      H2             51.2263094280       28.4324475841      -14.0263863352  W2        6566            0.0000000000
     19699      6567  TIP3      OH2            37.6623994280       32.3011575841       -5.2206563352  W2        6567            0.0000000000
     19700      6567  TIP3      H1             37.8794294280       31.3693975841       -5.2516863352  W2        6567            0.0000000000
     19701      6567  TIP3      H2             37.9087494280       32.5756575841       -4.3373763352  W2        6567            0.0000000000
     19702      6568  TIP3      OH2            43.5238594280       30.7526575841      -18.0114363352  W2        6568            0.0000000000
     19703      6568  TIP3      H1             43.7628394280       30.0044675841      -18.5585463352  W2        6568            0.0000000000
     19704      6568  TIP3      H2             43.2549894280       30.3648275841      -17.1786563352  W2        6568            0.0000000000
     19705      6569  TIP3      OH2            42.4609194280       30.3230375841      -15.5551763352  W2        6569            0.0000000000
     19706      6569  TIP3      H1             42.6077194280       29.8030175841      -14.7650863352  W2        6569            0.0000000000
     19707      6569  TIP3      H2             42.4580894280       31.2297975841      -15.2485863352  W2        6569            0.0000000000
     19708      6570  TIP3      OH2            38.9140294280       27.5753675841      -15.0446363352  W2        6570            0.0000000000
     19709      6570  TIP3      H1             38.2279594280       27.9276175841      -14.4776663352  W2        6570            0.0000000000
     19710      6570  TIP3      H2             39.4368194280       28.3383275841      -15.2912063352  W2        6570            0.0000000000
     19711      6571  TIP3      OH2            46.7455394280       20.2377475841       -4.7657363352  W2        6571            0.0000000000
     19712      6571  TIP3      H1             47.4443294280       20.3116175841       -4.1157663352  W2        6571            0.0000000000
     19713      6571  TIP3      H2             46.3646794280       19.3732475841       -4.6114463352  W2        6571            0.0000000000
     19714      6572  TIP3      OH2            47.5300294280       19.8899175841      -13.6685063352  W2        6572            0.0000000000
     19715      6572  TIP3      H1             47.7498594280       20.3614575841      -14.4719663352  W2        6572            0.0000000000
     19716      6572  TIP3      H2             48.0884294280       20.2841775841      -12.9984463352  W2        6572            0.0000000000
     19717      6573  TIP3      OH2            45.1986394280       32.0203975841      -14.8057563352  W2        6573            0.0000000000
     19718      6573  TIP3      H1             44.3822494280       32.5173675841      -14.7533263352  W2        6573            0.0000000000
     19719      6573  TIP3      H2             45.7282694280       32.4957475841      -15.4458763352  W2        6573            0.0000000000
     19720      6574  TIP3      OH2            44.7300194280       21.6177975841      -12.8336663352  W2        6574            0.0000000000
     19721      6574  TIP3      H1             45.5422794280       22.1221175841      -12.7874963352  W2        6574            0.0000000000
     19722      6574  TIP3      H2             44.4853194280       21.4727675841      -11.9197063352  W2        6574            0.0000000000
     19723      6575  TIP3      OH2            45.2656594280       22.6040675841       -3.6490063352  W2        6575            0.0000000000
     19724      6575  TIP3      H1             45.3846894280       23.1776075841       -2.8919663352  W2        6575            0.0000000000
     19725      6575  TIP3      H2             45.9211194280       21.9160075841       -3.5342263352  W2        6575            0.0000000000
     19726      6576  TIP3      OH2            45.6136894280       18.6990975841      -11.8955563352  W2        6576            0.0000000000
     19727      6576  TIP3      H1             45.2670394280       19.3161575841      -11.2511263352  W2        6576            0.0000000000
     19728      6576  TIP3      H2             46.2723794280       19.1996675841      -12.3770063352  W2        6576            0.0000000000
     19729      6577  TIP3      OH2            42.5369494280       33.0641175841      -14.8240663352  W2        6577            0.0000000000
     19730      6577  TIP3      H1             42.6978194280       33.8638675841      -15.3248063352  W2        6577            0.0000000000
     19731      6577  TIP3      H2             42.3397294280       33.3707175841      -13.9390063352  W2        6577            0.0000000000
     19732      6578  TIP3      OH2            41.2713894280       19.7620375841      -15.2083063352  W2        6578            0.0000000000
     19733      6578  TIP3      H1             41.1878694280       20.6503475841      -14.8616663352  W2        6578            0.0000000000
     19734      6578  TIP3      H2             42.1614194280       19.4967075841      -14.9766263352  W2        6578            0.0000000000
     19735      6579  TIP3      OH2            51.4702394280       20.5110975841       -2.8140363352  W2        6579            0.0000000000
     19736      6579  TIP3      H1             50.5538194280       20.7732675841       -2.9016663352  W2        6579            0.0000000000
     19737      6579  TIP3      H2             51.8057394280       20.5079975841       -3.7105063352  W2        6579            0.0000000000
     19738      6580  TIP3      OH2            50.0723394280       24.2611975841       -8.7183063352  W2        6580            0.0000000000
     19739      6580  TIP3      H1             49.2747794280       23.8462175841       -9.0468063352  W2        6580            0.0000000000
     19740      6580  TIP3      H2             50.5174494280       23.5705675841       -8.2272563352  W2        6580            0.0000000000
     19741      6581  TIP3      OH2            39.5299194280       30.1892575841      -16.1478563352  W2        6581            0.0000000000
     19742      6581  TIP3      H1             40.1220694280       30.8887375841      -15.8716163352  W2        6581            0.0000000000
     19743      6581  TIP3      H2             39.9892194280       29.7562075841      -16.8673963352  W2        6581            0.0000000000
     19744      6582  TIP3      OH2            37.8458394280       22.8535575841      -17.0319163352  W2        6582            0.0000000000
     19745      6582  TIP3      H1             37.8010994280       23.7928675841      -16.8532163352  W2        6582            0.0000000000
     19746      6582  TIP3      H2             36.9581594280       22.6180475841      -17.3017063352  W2        6582            0.0000000000
     19747      6583  TIP3      OH2            51.1587994280       33.5174475841       -7.0959563352  W2        6583            0.0000000000
     19748      6583  TIP3      H1             51.0032294280       34.1958875841       -7.7530263352  W2        6583            0.0000000000
     19749      6583  TIP3      H2             52.0914394280       33.5893775841       -6.8928963352  W2        6583            0.0000000000
     19750      6584  TIP3      OH2            38.6540394280       17.6352175841       -8.3588163352  W2        6584            0.0000000000
     19751      6584  TIP3      H1             38.4250194280       17.6944675841       -9.2863163352  W2        6584            0.0000000000
     19752      6584  TIP3      H2             38.2113794280       16.8437675841       -8.0524063352  W2        6584            0.0000000000
     19753      6585  TIP3      OH2            37.5843694280       31.5759275841      -12.1982363352  W2        6585            0.0000000000
     19754      6585  TIP3      H1             36.7522294280       32.0481975841      -12.1710963352  W2        6585            0.0000000000
     19755      6585  TIP3      H2             38.1301994280       32.0856875841      -12.7969263352  W2        6585            0.0000000000
     19756      6586  TIP3      OH2            36.8727394280       34.1882975841       -0.8684363352  W2        6586            0.0000000000
     19757      6586  TIP3      H1             37.4129594280       33.9716975841       -0.1085163352  W2        6586            0.0000000000
     19758      6586  TIP3      H2             36.3915394280       33.3828975841       -1.0581863352  W2        6586            0.0000000000
     19759      6587  TIP3      OH2            41.4700794280       33.1077375841        0.7519836648  W2        6587            0.0000000000
     19760      6587  TIP3      H1             42.2377994280       32.6488175841        1.0929036648  W2        6587            0.0000000000
     19761      6587  TIP3      H2             41.4486994280       32.8817175841       -0.1778963352  W2        6587            0.0000000000
     19762      6588  TIP3      OH2            45.5620394280       32.6157975841      -17.8728363352  W2        6588            0.0000000000
     19763      6588  TIP3      H1             44.9181394280       31.9846575841      -17.5514663352  W2        6588            0.0000000000
     19764      6588  TIP3      H2             46.3238694280       32.0845975841      -18.1044863352  W2        6588            0.0000000000
     19765      6589  TIP3      OH2            48.0469494280       31.4878475841       -0.5188663352  W2        6589            0.0000000000
     19766      6589  TIP3      H1             47.6958994280       30.6311475841       -0.2758263352  W2        6589            0.0000000000
     19767      6589  TIP3      H2             48.7732694280       31.6305175841        0.0880336648  W2        6589            0.0000000000
     19768      6590  TIP3      OH2            50.1663294280       32.4327875841      -17.6390363352  W2        6590            0.0000000000
     19769      6590  TIP3      H1             50.4493694280       31.6383075841      -17.1863463352  W2        6590            0.0000000000
     19770      6590  TIP3      H2             50.9061194280       32.6658875841      -18.1999263352  W2        6590            0.0000000000
     19771      6591  TIP3      OH2            36.7796894280       27.9987075841        0.0859936648  W2        6591            0.0000000000
     19772      6591  TIP3      H1             36.9237394280       27.0967775841       -0.2003363352  W2        6591            0.0000000000
     19773      6591  TIP3      H2             36.0074294280       28.2849175841       -0.4017763352  W2        6591            0.0000000000
     19774      6592  TIP3      OH2            41.1210594280       28.3422775841      -17.7815463352  W2        6592            0.0000000000
     19775      6592  TIP3      H1             41.1854694280       27.5482375841      -17.2509063352  W2        6592            0.0000000000
     19776      6592  TIP3      H2             41.7739794280       28.2235575841      -18.4713463352  W2        6592            0.0000000000
     19777      6593  TIP3      OH2            43.4352994280       27.9685175841       -0.4813663352  W2        6593            0.0000000000
     19778      6593  TIP3      H1             43.1066794280       28.2393275841       -1.3386263352  W2        6593            0.0000000000
     19779      6593  TIP3      H2             43.5871194280       27.0274975841       -0.5688663352  W2        6593            0.0000000000
     19780      6594  TIP3      OH2            46.4733994280       29.3894475841      -18.0457463352  W2        6594            0.0000000000
     19781      6594  TIP3      H1             46.2048094280       29.5696575841      -17.1448563352  W2        6594            0.0000000000
     19782      6594  TIP3      H2             46.2669594280       28.4640675841      -18.1771663352  W2        6594            0.0000000000
     19783      6595  TIP3      OH2            49.1698194280       27.8842475841       -3.0981363352  W2        6595            0.0000000000
     19784      6595  TIP3      H1             49.9152994280       28.4726175841       -3.2177363352  W2        6595            0.0000000000
     19785      6595  TIP3      H2             48.4124994280       28.4662175841       -3.0348263352  W2        6595            0.0000000000
     19786      6596  TIP3      OH2            37.6123394280       25.1990375841       -0.4940763352  W2        6596            0.0000000000
     19787      6596  TIP3      H1             38.0204594280       24.3416975841       -0.6150163352  W2        6596            0.0000000000
     19788      6596  TIP3      H2             37.3520994280       25.2131675841        0.4269536648  W2        6596            0.0000000000
     19789      6597  TIP3      OH2            42.2704394280       26.3148975841      -15.4757463352  W2        6597            0.0000000000
     19790      6597  TIP3      H1             41.8106394280       25.8307275841      -14.7898963352  W2        6597            0.0000000000
     19791      6597  TIP3      H2             42.5253094280       25.6464375841      -16.1116963352  W2        6597            0.0000000000
     19792      6598  TIP3      OH2            41.5593694280       24.2076075841       -3.1197863352  W2        6598            0.0000000000
     19793      6598  TIP3      H1             40.9409794280       24.8822675841       -2.8393163352  W2        6598            0.0000000000
     19794      6598  TIP3      H2             41.9034894280       24.5289975841       -3.9531663352  W2        6598            0.0000000000
     19795      6599  TIP3      OH2            43.3414794280       24.5580775841      -17.2134263352  W2        6599            0.0000000000
     19796      6599  TIP3      H1             43.1609794280       24.4031975841      -18.1405963352  W2        6599            0.0000000000
     19797      6599  TIP3      H2             44.2915294280       24.6659475841      -17.1686363352  W2        6599            0.0000000000
     19798      6600  TIP3      OH2            46.5791894280       26.6791375841        0.1576936648  W2        6600            0.0000000000
     19799      6600  TIP3      H1             47.5323094280       26.7630475841        0.1302936648  W2        6600            0.0000000000
     19800      6600  TIP3      H2             46.4186494280       25.9673175841        0.7771836648  W2        6600            0.0000000000
     19801      6601  TIP3      OH2            52.7313094280       26.9124975841      -17.7676163352  W2        6601            0.0000000000
     19802      6601  TIP3      H1             52.4577894280       26.4880475841      -18.5807863352  W2        6601            0.0000000000
     19803      6601  TIP3      H2             52.7707194280       27.8439475841      -17.9845763352  W2        6601            0.0000000000
     19804      6602  TIP3      OH2            41.8987394280       21.5626875841       -2.0374763352  W2        6602            0.0000000000
     19805      6602  TIP3      H1             42.0488294280       20.8338175841       -2.6395063352  W2        6602            0.0000000000
     19806      6602  TIP3      H2             41.9009794280       22.3398575841       -2.5962563352  W2        6602            0.0000000000
     19807      6603  TIP3      OH2            42.3113094280       19.9322675841       -4.5447363352  W2        6603            0.0000000000
     19808      6603  TIP3      H1             42.8470594280       20.3839375841       -5.1968063352  W2        6603            0.0000000000
     19809      6603  TIP3      H2             41.4592694280       19.8242475841       -4.9673263352  W2        6603            0.0000000000
     19810      6604  TIP3      OH2            43.8931494280       25.3718875841       -4.3052163352  W2        6604            0.0000000000
     19811      6604  TIP3      H1             44.6436294280       25.2156375841       -4.8784363352  W2        6604            0.0000000000
     19812      6604  TIP3      H2             43.5539794280       26.2235475841       -4.5806663352  W2        6604            0.0000000000
     19813      6605  TIP3      OH2            48.3087694280       23.1870675841        0.7233136648  W2        6605            0.0000000000
     19814      6605  TIP3      H1             48.5008994280       22.2560075841        0.6117636648  W2        6605            0.0000000000
     19815      6605  TIP3      H2             49.1663994280       23.6120175841        0.7128536648  W2        6605            0.0000000000
     19816      6606  TIP3      OH2            49.6254894280       25.9755875841       -1.1994163352  W2        6606            0.0000000000
     19817      6606  TIP3      H1             49.3439894280       26.6850475841       -1.7770363352  W2        6606            0.0000000000
     19818      6606  TIP3      H2             50.5679194280       25.9028875841       -1.3502963352  W2        6606            0.0000000000
     19819      6607  TIP3      OH2            40.3773694280       22.7610375841       -0.1259163352  W2        6607            0.0000000000
     19820      6607  TIP3      H1             39.6102694280       22.2285175841       -0.3361563352  W2        6607            0.0000000000
     19821      6607  TIP3      H2             41.0562694280       22.4510775841       -0.7252863352  W2        6607            0.0000000000
     19822      6608  TIP3      OH2            43.1168594280       17.3888375841       -4.1133763352  W2        6608            0.0000000000
     19823      6608  TIP3      H1             43.0188194280       18.3351575841       -4.2187563352  W2        6608            0.0000000000
     19824      6608  TIP3      H2             42.3744794280       17.0162175841       -4.5890263352  W2        6608            0.0000000000
     19825      6609  TIP3      OH2            44.3809094280       21.7103775841       -0.5495363352  W2        6609            0.0000000000
     19826      6609  TIP3      H1             44.1454494280       21.4910475841        0.3519536648  W2        6609            0.0000000000
     19827      6609  TIP3      H2             43.5975994280       21.5034975841       -1.0592863352  W2        6609            0.0000000000
     19828      6610  TIP3      OH2            47.0965694280       20.8377275841       -1.4741863352  W2        6610            0.0000000000
     19829      6610  TIP3      H1             46.1491094280       20.8696975841       -1.3418563352  W2        6610            0.0000000000
     19830      6610  TIP3      H2             47.4092394280       20.2124375841       -0.8203663352  W2        6610            0.0000000000
     19831      6611  TIP3      OH2            48.7307194280       19.4718375841        0.5310036648  W2        6611            0.0000000000
     19832      6611  TIP3      H1             48.6338994280       18.5195675841        0.5251936648  W2        6611            0.0000000000
     19833      6611  TIP3      H2             48.4090294280       19.7405175841        1.3915536648  W2        6611            0.0000000000
     19834      6612  TIP3      OH2            38.5576494280       20.6814175841       -0.4214463352  W2        6612            0.0000000000
     19835      6612  TIP3      H1             38.7693894280       19.9750275841       -1.0316963352  W2        6612            0.0000000000
     19836      6612  TIP3      H2             38.4463994280       20.2440175841        0.4226736648  W2        6612            0.0000000000
     19837      6613  TIP3      OH2            43.3386694280       16.6825775841       -1.4420963352  W2        6613            0.0000000000
     19838      6613  TIP3      H1             44.0505094280       16.0427975841       -1.4561863352  W2        6613            0.0000000000
     19839      6613  TIP3      H2             43.2377094280       16.9494075841       -2.3557863352  W2        6613            0.0000000000
     19840      6614  TIP3      OH2            43.6924194280       18.3654175841        0.6115336648  W2        6614            0.0000000000
     19841      6614  TIP3      H1             43.5606394280       17.8897975841       -0.2086163352  W2        6614            0.0000000000
     19842      6614  TIP3      H2             43.0931594280       19.1097775841        0.5562436648  W2        6614            0.0000000000
     19843      6615  TIP3      OH2            43.2386494280       35.2484475841      -16.2120663352  W2        6615            0.0000000000
     19844      6615  TIP3      H1             44.1717194280       35.4063175841      -16.0682263352  W2        6615            0.0000000000
     19845      6615  TIP3      H2             42.9745294280       35.9237475841      -16.8369163352  W2        6615            0.0000000000
     19846      6616  TIP3      OH2            36.8071394280       29.8848275841      -16.7292563352  W2        6616            0.0000000000
     19847      6616  TIP3      H1             37.7210594280       29.9637175841      -16.4558663352  W2        6616            0.0000000000
     19848      6616  TIP3      H2             36.8144494280       29.1977875841      -17.3956963352  W2        6616            0.0000000000
     19849      6617  TIP3      OH2            35.4561994280       35.2776775841      -11.6518663352  W2        6617            0.0000000000
     19850      6617  TIP3      H1             34.8089094280       34.8158475841      -12.1847463352  W2        6617            0.0000000000
     19851      6617  TIP3      H2             35.8106594280       34.6060075841      -11.0692463352  W2        6617            0.0000000000
     19852      6618  TIP3      OH2            36.3261194280       33.3583775841       -9.8472463352  W2        6618            0.0000000000
     19853      6618  TIP3      H1             35.9917994280       32.4781075841       -9.6752263352  W2        6618            0.0000000000
     19854      6618  TIP3      H2             36.5483594280       33.7038775841       -8.9826863352  W2        6618            0.0000000000
     19855      6619  TIP3      OH2            53.8745994280       34.1680175841       -6.8667663352  W2        6619            0.0000000000
     19856      6619  TIP3      H1             53.8532694280       34.3528575841       -5.9278263352  W2        6619            0.0000000000
     19857      6619  TIP3      H2             54.5652194280       34.7364175841       -7.2076263352  W2        6619            0.0000000000
     19858      6620  TIP3      OH2            53.4378894280       33.7351275841       -3.9448563352  W2        6620            0.0000000000
     19859      6620  TIP3      H1             52.9507594280       32.9995375841       -4.3161163352  W2        6620            0.0000000000
     19860      6620  TIP3      H2             53.9871594280       33.3415175841       -3.2669163352  W2        6620            0.0000000000
     19861      6621  TIP3      OH2            51.8886194280       29.5249375841        0.6931736648  W2        6621            0.0000000000
     19862      6621  TIP3      H1             51.0227294280       29.4199075841        1.0874036648  W2        6621            0.0000000000
     19863      6621  TIP3      H2             52.2652094280       30.2832675841        1.1396436648  W2        6621            0.0000000000
     19864      6622  TIP3      OH2            53.1895894280       27.7813075841      -13.7925763352  W2        6622            0.0000000000
     19865      6622  TIP3      H1             54.0397294280       28.2023975841      -13.6654163352  W2        6622            0.0000000000
     19866      6622  TIP3      H2             53.1950994280       27.0413175841      -13.1854363352  W2        6622            0.0000000000
     19867      6623  TIP3      OH2            53.5841494280       25.8350475841      -11.9690063352  W2        6623            0.0000000000
     19868      6623  TIP3      H1             52.8576094280       25.3553075841      -11.5712463352  W2        6623            0.0000000000
     19869      6623  TIP3      H2             54.1654794280       26.0405175841      -11.2368463352  W2        6623            0.0000000000
     19870      6624  TIP3      OH2            53.3432694280       28.6197975841       -7.0212463352  W2        6624            0.0000000000
     19871      6624  TIP3      H1             54.1766894280       28.2417975841       -7.3018863352  W2        6624            0.0000000000
     19872      6624  TIP3      H2             53.4552994280       29.5629175841       -7.1403363352  W2        6624            0.0000000000
     19873      6625  TIP3      OH2            51.8294994280       31.4975475841       -4.7144063352  W2        6625            0.0000000000
     19874      6625  TIP3      H1             51.1820294280       31.8226975841       -4.0888863352  W2        6625            0.0000000000
     19875      6625  TIP3      H2             51.3118994280       31.0573175841       -5.3885763352  W2        6625            0.0000000000
     19876      6626  TIP3      OH2            53.8524594280       25.7358975841      -15.5778763352  W2        6626            0.0000000000
     19877      6626  TIP3      H1             53.3305694280       26.0923075841      -16.2967863352  W2        6626            0.0000000000
     19878      6626  TIP3      H2             53.8193794280       26.4106775841      -14.8997863352  W2        6626            0.0000000000
     19879      6627  TIP3      OH2            52.2013594280       22.9754575841      -17.0271663352  W2        6627            0.0000000000
     19880      6627  TIP3      H1             52.2977994280       23.6421575841      -17.7071963352  W2        6627            0.0000000000
     19881      6627  TIP3      H2             52.0613194280       22.1600875841      -17.5086163352  W2        6627            0.0000000000
     19882      6628  TIP3      OH2            51.3708294280       24.3556975841      -11.4061363352  W2        6628            0.0000000000
     19883      6628  TIP3      H1             51.2207094280       23.4105575841      -11.4263563352  W2        6628            0.0000000000
     19884      6628  TIP3      H2             51.0172794280       24.6368375841      -10.5622263352  W2        6628            0.0000000000
     19885      6629  TIP3      OH2            36.4060694280       26.4339175841       -7.3957563352  W2        6629            0.0000000000
     19886      6629  TIP3      H1             36.5903594280       26.3520875841       -8.3314663352  W2        6629            0.0000000000
     19887      6629  TIP3      H2             37.2553594280       26.3096175841       -6.9721163352  W2        6629            0.0000000000
     19888      6630  TIP3      OH2            52.2271194280       26.3260275841       -1.7673063352  W2        6630            0.0000000000
     19889      6630  TIP3      H1             52.8098494280       25.5912575841       -1.5755863352  W2        6630            0.0000000000
     19890      6630  TIP3      H2             52.7910494280       27.0980575841       -1.7207263352  W2        6630            0.0000000000
     19891      6631  TIP3      OH2            53.7238294280       24.2286075841       -1.0827663352  W2        6631            0.0000000000
     19892      6631  TIP3      H1             52.8604994280       23.8498175841       -1.2482963352  W2        6631            0.0000000000
     19893      6631  TIP3      H2             54.3281994280       23.4900875841       -1.1571863352  W2        6631            0.0000000000
     19894      6632  TIP3      OH2            51.4487394280       20.3834375841      -17.9096163352  W2        6632            0.0000000000
     19895      6632  TIP3      H1             52.0593194280       20.0121175841      -17.2727963352  W2        6632            0.0000000000
     19896      6632  TIP3      H2             50.6118894280       19.9621275841      -17.7136163352  W2        6632            0.0000000000
     19897      6633  TIP3      OH2            51.0813094280       21.9382775841      -12.9436263352  W2        6633            0.0000000000
     19898      6633  TIP3      H1             51.3610194280       21.0313175841      -12.8194563352  W2        6633            0.0000000000
     19899      6633  TIP3      H2             51.8404794280       22.3724275841      -13.3327063352  W2        6633            0.0000000000
     19900      6634  TIP3      OH2            51.6931394280       22.5200175841       -7.5077363352  W2        6634            0.0000000000
     19901      6634  TIP3      H1             52.6259394280       22.7320075841       -7.5421363352  W2        6634            0.0000000000
     19902      6634  TIP3      H2             51.4578894280       22.6212275841       -6.5854363352  W2        6634            0.0000000000
     19903      6635  TIP3      OH2            51.7223294280       23.2565475841       -4.7317963352  W2        6635            0.0000000000
     19904      6635  TIP3      H1             50.8794594280       23.5245875841       -4.3658163352  W2        6635            0.0000000000
     19905      6635  TIP3      H2             52.1647594280       24.0787375841       -4.9426863352  W2        6635            0.0000000000
     19906      6636  TIP3      OH2            36.0035494280       21.7044175841       -1.2548763352  W2        6636            0.0000000000
     19907      6636  TIP3      H1             36.9230394280       21.5822475841       -1.0185663352  W2        6636            0.0000000000
     19908      6636  TIP3      H2             35.5539994280       20.9543875841       -0.8655263352  W2        6636            0.0000000000
     19909      6637  TIP3      OH2            54.0054894280       17.2365675841        0.6217036648  W2        6637            0.0000000000
     19910      6637  TIP3      H1             54.3551894280       16.5829175841        0.0161736648  W2        6637            0.0000000000
     19911      6637  TIP3      H2             54.1524394280       18.0739775841        0.1819636648  W2        6637            0.0000000000
     19912      6638  TIP3      OH2            51.6947894280       19.2012075841      -12.8954263352  W2        6638            0.0000000000
     19913      6638  TIP3      H1             51.8772894280       18.7523575841      -12.0699263352  W2        6638            0.0000000000
     19914      6638  TIP3      H2             51.0950794280       18.6166475841      -13.3589663352  W2        6638            0.0000000000
     19915      6639  TIP3      OH2            37.2247994280       20.0165775841       -8.3635863352  W2        6639            0.0000000000
     19916      6639  TIP3      H1             37.6699594280       19.2248275841       -8.0616163352  W2        6639            0.0000000000
     19917      6639  TIP3      H2             37.6910994280       20.7330975841       -7.9330263352  W2        6639            0.0000000000
     19918      6640  TIP3      OH2            35.5288294280       23.0158775841       -7.2945663352  W2        6640            0.0000000000
     19919      6640  TIP3      H1             36.0208094280       22.7949275841       -8.0853663352  W2        6640            0.0000000000
     19920      6640  TIP3      H2             35.8909194280       23.8562175841       -7.0136163352  W2        6640            0.0000000000
     19921      6641  TIP3      OH2            53.5252094280       19.3460275841       -1.0291663352  W2        6641            0.0000000000
     19922      6641  TIP3      H1             52.6077794280       19.6167375841       -1.0648163352  W2        6641            0.0000000000
     19923      6641  TIP3      H2             53.6481494280       18.8108675841       -1.8131963352  W2        6641            0.0000000000
     19924      6642  TIP3      OH2            53.5614094280       19.2690175841      -16.3673963352  W2        6642            0.0000000000
     19925      6642  TIP3      H1             53.9736694280       18.5475875841      -16.8425963352  W2        6642            0.0000000000
     19926      6642  TIP3      H2             54.2430594280       19.9384775841      -16.3089663352  W2        6642            0.0000000000
     19927      6643  TIP3      OH2            35.8424794280       19.2737875841      -13.2403263352  W2        6643            0.0000000000
     19928      6643  TIP3      H1             34.9173194280       19.4824475841      -13.3697763352  W2        6643            0.0000000000
     19929      6643  TIP3      H2             36.2964694280       19.7578675841      -13.9300963352  W2        6643            0.0000000000
     19930      6644  TIP3      OH2            50.6131994280       34.2579575841      -11.2945863352  W2        6644            0.0000000000
     19931      6644  TIP3      H1             51.2654894280       33.9101675841      -11.9026763352  W2        6644            0.0000000000
     19932      6644  TIP3      H2             51.1235794280       34.7462775841      -10.6486163352  W2        6644            0.0000000000
     19933      6645  TIP3      OH2            35.8060194280       18.0116875841       -4.8960763352  W2        6645            0.0000000000
     19934      6645  TIP3      H1             35.1410694280       17.7657175841       -4.2529863352  W2        6645            0.0000000000
     19935      6645  TIP3      H2             35.3631494280       18.6337275841       -5.4732763352  W2        6645            0.0000000000
     19936      6646  TIP3      OH2            37.9979494280       31.1870975841       -0.7514963352  W2        6646            0.0000000000
     19937      6646  TIP3      H1             37.1771994280       31.3617475841       -1.2120263352  W2        6646            0.0000000000
     19938      6646  TIP3      H2             37.7457294280       31.1135675841        0.1689436648  W2        6646            0.0000000000
     19939      6647  TIP3      OH2            40.9522394280       32.1612175841       -4.4930963352  W2        6647            0.0000000000
     19940      6647  TIP3      H1             40.5273494280       32.9710675841       -4.7756363352  W2        6647            0.0000000000
     19941      6647  TIP3      H2             41.8565194280       32.2466275841       -4.7951163352  W2        6647            0.0000000000
     19942      6648  TIP3      OH2            45.2633794280       33.5602175841       -1.5337263352  W2        6648            0.0000000000
     19943      6648  TIP3      H1             45.4481294280       33.2268275841       -0.6556963352  W2        6648            0.0000000000
     19944      6648  TIP3      H2             46.1098294280       33.8700775841       -1.8558063352  W2        6648            0.0000000000
     19945      6649  TIP3      OH2            47.6084194280       34.8461075841       -2.2895863352  W2        6649            0.0000000000
     19946      6649  TIP3      H1             48.2853094280       34.2133375841       -2.5296663352  W2        6649            0.0000000000
     19947      6649  TIP3      H2             47.9302994280       35.2471575841       -1.4822563352  W2        6649            0.0000000000
     19948      6650  TIP3      OH2            52.5257994280       17.4356575841       -3.2100863352  W2        6650            0.0000000000
     19949      6650  TIP3      H1             51.7131494280       17.7606875841       -3.5976163352  W2        6650            0.0000000000
     19950      6650  TIP3      H2             52.7586494280       16.6755075841       -3.7431763352  W2        6650            0.0000000000
     19951      6651  TIP3      OH2            38.3539094280       35.4176075841       -4.4455663352  W2        6651            0.0000000000
     19952      6651  TIP3      H1             37.6335494280       35.8577075841       -4.8967963352  W2        6651            0.0000000000
     19953      6651  TIP3      H2             37.9883094280       35.1670775841       -3.5971663352  W2        6651            0.0000000000
     19954      6652  TIP3      OH2            40.8211694280       35.0179975841       -5.4158463352  W2        6652            0.0000000000
     19955      6652  TIP3      H1             39.9563894280       35.0898475841       -5.0118363352  W2        6652            0.0000000000
     19956      6652  TIP3      H2             40.7660694280       35.5647275841       -6.1995963352  W2        6652            0.0000000000
     19957      6653  TIP3      OH2            45.5317294280       34.9058875841       -6.2402463352  W2        6653            0.0000000000
     19958      6653  TIP3      H1             45.0751294280       35.4348575841       -6.8944063352  W2        6653            0.0000000000
     19959      6653  TIP3      H2             45.6945294280       35.5090275841       -5.5150163352  W2        6653            0.0000000000
     19960      6654  TIP3      OH2            47.8593594280       33.7838475841       -5.2952163352  W2        6654            0.0000000000
     19961      6654  TIP3      H1             46.9547294280       33.9488675841       -5.5610063352  W2        6654            0.0000000000
     19962      6654  TIP3      H2             48.2882194280       34.6370675841       -5.3608763352  W2        6654            0.0000000000
     19963      6655  TIP3      OH2            50.4635494280       35.3537575841       -5.0004363352  W2        6655            0.0000000000
     19964      6655  TIP3      H1             50.2817494280       36.2696475841       -5.2109463352  W2        6655            0.0000000000
     19965      6655  TIP3      H2             50.6403294280       34.9434675841       -5.8469763352  W2        6655            0.0000000000
     19966      6656  TIP3      OH2            37.7687194280       34.0408575841       -7.5353863352  W2        6656            0.0000000000
     19967      6656  TIP3      H1             37.7503194280       33.6153675841       -6.6781563352  W2        6656            0.0000000000
     19968      6656  TIP3      H2             38.5735094280       33.7223575841       -7.9441663352  W2        6656            0.0000000000
     19969      6657  TIP3      OH2            39.9100294280       32.7507275841       -8.8803963352  W2        6657            0.0000000000
     19970      6657  TIP3      H1             39.6910994280       31.8344675841       -8.7107963352  W2        6657            0.0000000000
     19971      6657  TIP3      H2             40.7342494280       32.8907675841       -8.4142563352  W2        6657            0.0000000000
     19972      6658  TIP3      OH2            42.4472794280       33.2206575841       -8.0315963352  W2        6658            0.0000000000
     19973      6658  TIP3      H1             42.6598494280       32.3325575841       -8.3185063352  W2        6658            0.0000000000
     19974      6658  TIP3      H2             42.5117894280       33.1864275841       -7.0771963352  W2        6658            0.0000000000
     19975      6659  TIP3      OH2            45.9556494280       18.8847175841       -8.8872663352  W2        6659            0.0000000000
     19976      6659  TIP3      H1             45.2813294280       18.2552775841       -8.6316863352  W2        6659            0.0000000000
     19977      6659  TIP3      H2             46.5195694280       18.4006075841       -9.4904763352  W2        6659            0.0000000000
     19978      6660  TIP3      OH2            51.0983694280       16.9921175841       -8.7745563352  W2        6660            0.0000000000
     19979      6660  TIP3      H1             51.7021294280       17.5396575841       -9.2764563352  W2        6660            0.0000000000
     19980      6660  TIP3      H2             50.2285694280       17.3111575841       -9.0151463352  W2        6660            0.0000000000
     19981      6661  TIP3      OH2            52.8254094280       18.1309875841      -10.4414663352  W2        6661            0.0000000000
     19982      6661  TIP3      H1             53.4371594280       17.6165575841      -10.9681063352  W2        6661            0.0000000000
     19983      6661  TIP3      H2             53.2077494280       19.0081975841      -10.4180263352  W2        6661            0.0000000000
     19984      6662  TIP3      OH2            38.2823994280       17.5187475841      -11.0652763352  W2        6662            0.0000000000
     19985      6662  TIP3      H1             37.5053794280       17.2842375841      -11.5726863352  W2        6662            0.0000000000
     19986      6662  TIP3      H2             38.8127594280       16.7219575841      -11.0564763352  W2        6662            0.0000000000
     19987      6663  TIP3      OH2            37.1187394280       17.3165575841      -15.2616663352  W2        6663            0.0000000000
     19988      6663  TIP3      H1             37.5578094280       17.9276075841      -15.8533163352  W2        6663            0.0000000000
     19989      6663  TIP3      H2             36.4849794280       17.8549675841      -14.7876663352  W2        6663            0.0000000000
     19990      6664  TIP3      OH2            42.8616594280       17.4454575841      -11.2519663352  W2        6664            0.0000000000
     19991      6664  TIP3      H1             43.7359994280       17.8338875841      -11.2815363352  W2        6664            0.0000000000
     19992      6664  TIP3      H2             42.7257394280       17.2302375841      -10.3292463352  W2        6664            0.0000000000
     19993      6665  TIP3      OH2            48.4184994280       17.4754375841       -9.6027963352  W2        6665            0.0000000000
     19994      6665  TIP3      H1             48.4946594280       17.5705975841      -10.5521963352  W2        6665            0.0000000000
     19995      6665  TIP3      H2             48.1434194280       16.5677275841       -9.4738863352  W2        6665            0.0000000000
     19996      6666  TIP3      OH2            49.7717594280       17.5012175841      -13.9102963352  W2        6666            0.0000000000
     19997      6666  TIP3      H1             49.0688694280       18.1161375841      -14.1201563352  W2        6666            0.0000000000
     19998      6666  TIP3      H2             49.3268994280       16.6638875841      -13.7792063352  W2        6666            0.0000000000
     19999      6667  TIP3      OH2            37.0196894280       33.2647775841      -14.3641563352  W2        6667            0.0000000000
     20000      6667  TIP3      H1             36.3346794280       33.2266675841      -15.0316463352  W2        6667            0.0000000000
     20001      6667  TIP3      H2             37.0234094280       34.1775375841      -14.0759463352  W2        6667            0.0000000000
     20002      6668  TIP3      OH2            38.9796494280       19.2327075841      -16.8192563352  W2        6668            0.0000000000
     20003      6668  TIP3      H1             39.4709894280       18.6029475841      -17.3467063352  W2        6668            0.0000000000
     20004      6668  TIP3      H2             39.6032794280       19.5286475841      -16.1561363352  W2        6668            0.0000000000
     20005      6669  TIP3      OH2            44.0056594280       19.5258575841      -14.3622063352  W2        6669            0.0000000000
     20006      6669  TIP3      H1             44.1837894280       18.8791775841      -13.6793463352  W2        6669            0.0000000000
     20007      6669  TIP3      H2             43.9522794280       20.3596275841      -13.8950963352  W2        6669            0.0000000000
     20008      6670  TIP3      OH2            45.8840394280       34.4742675841      -15.9665363352  W2        6670            0.0000000000
     20009      6670  TIP3      H1             46.7500594280       34.8410075841      -16.1447163352  W2        6670            0.0000000000
     20010      6670  TIP3      H2             45.6373194280       34.0350675841      -16.7804563352  W2        6670            0.0000000000
     20011      6671  TIP3      OH2            52.5929994280       34.0372975841      -13.2874263352  W2        6671            0.0000000000
     20012      6671  TIP3      H1             52.3987094280       33.2895075841      -13.8524663352  W2        6671            0.0000000000
     20013      6671  TIP3      H2             52.5540094280       34.7953075841      -13.8706363352  W2        6671            0.0000000000
     20014      6672  TIP3      OH2            38.2401994280       18.0329375841       -1.5476563352  W2        6672            0.0000000000
     20015      6672  TIP3      H1             37.8740194280       17.2671975841       -1.1051863352  W2        6672            0.0000000000
     20016      6672  TIP3      H2             39.1530494280       18.0619575841       -1.2611463352  W2        6672            0.0000000000
     20017      6673  TIP3      OH2            40.2132794280       17.3833775841       -0.0119463352  W2        6673            0.0000000000
     20018      6673  TIP3      H1             41.1116394280       17.1093975841       -0.1966063352  W2        6673            0.0000000000
     20019      6673  TIP3      H2             39.8265894280       16.6409775841        0.4523136648  W2        6673            0.0000000000
     20020      6674  TIP3      OH2            38.8378094280       34.1848575841      -17.3389463352  W2        6674            0.0000000000
     20021      6674  TIP3      H1             38.5702694280       34.4711475841      -16.4656363352  W2        6674            0.0000000000
     20022      6674  TIP3      H2             39.6090694280       33.6387775841      -17.1866963352  W2        6674            0.0000000000
     20023      6675  TIP3      OH2            48.6345094280       16.7159075841        0.1703336648  W2        6675            0.0000000000
     20024      6675  TIP3      H1             48.7112294280       16.2899775841        1.0241036648  W2        6675            0.0000000000
     20025      6675  TIP3      H2             49.5281694280       16.7293775841       -0.1723163352  W2        6675            0.0000000000
     20026      6676  TIP3      OH2            51.8106194280       32.7885375841       -1.1372463352  W2        6676            0.0000000000
     20027      6676  TIP3      H1             51.0288094280       32.6023375841       -1.6571863352  W2        6676            0.0000000000
     20028      6676  TIP3      H2             51.7386094280       33.7179675841       -0.9199963352  W2        6676            0.0000000000
     20029      6677  TIP3      OH2            57.5182894280       25.5442575841       -6.0947163352  W2        6677            0.0000000000
     20030      6677  TIP3      H1             57.5594994280       24.9185875841       -5.3714763352  W2        6677            0.0000000000
     20031      6677  TIP3      H2             58.2210594280       26.1681175841       -5.9126763352  W2        6677            0.0000000000
     20032      6678  TIP3      OH2            58.4415994280       29.9941475841       -7.5598063352  W2        6678            0.0000000000
     20033      6678  TIP3      H1             58.0721194280       29.1921975841       -7.9293763352  W2        6678            0.0000000000
     20034      6678  TIP3      H2             59.3827094280       29.8256375841       -7.5134663352  W2        6678            0.0000000000
     20035      6679  TIP3      OH2            55.0516494280       23.6544075841      -12.1669263352  W2        6679            0.0000000000
     20036      6679  TIP3      H1             54.6039894280       24.5002775841      -12.1852763352  W2        6679            0.0000000000
     20037      6679  TIP3      H2             54.4907694280       23.0748275841      -12.6824163352  W2        6679            0.0000000000
     20038      6680  TIP3      OH2            55.7622594280       25.8163675841      -10.0411263352  W2        6680            0.0000000000
     20039      6680  TIP3      H1             55.9756094280       25.0465275841       -9.5138263352  W2        6680            0.0000000000
     20040      6680  TIP3      H2             56.5000194280       25.9060375841      -10.6443663352  W2        6680            0.0000000000
     20041      6681  TIP3      OH2            56.4549094280       23.2546475841       -8.9195063352  W2        6681            0.0000000000
     20042      6681  TIP3      H1             57.1085694280       22.7048175841       -8.4874963352  W2        6681            0.0000000000
     20043      6681  TIP3      H2             56.4788394280       22.9805475841       -9.8363063352  W2        6681            0.0000000000
     20044      6682  TIP3      OH2            58.2386794280       21.6680875841       -7.6553463352  W2        6682            0.0000000000
     20045      6682  TIP3      H1             58.8523094280       22.3008475841       -7.2821063352  W2        6682            0.0000000000
     20046      6682  TIP3      H2             58.7507494280       21.1955875841       -8.3116563352  W2        6682            0.0000000000
     20047      6683  TIP3      OH2            55.7426094280       29.0865675841      -13.7511163352  W2        6683            0.0000000000
     20048      6683  TIP3      H1             55.4706994280       29.3156675841      -14.6398263352  W2        6683            0.0000000000
     20049      6683  TIP3      H2             55.7881794280       29.9244475841      -13.2905863352  W2        6683            0.0000000000
     20050      6684  TIP3      OH2            58.1556594280       26.1248675841       -3.2411463352  W2        6684            0.0000000000
     20051      6684  TIP3      H1             58.2259794280       26.7755475841       -2.5426463352  W2        6684            0.0000000000
     20052      6684  TIP3      H2             57.2648794280       26.2276175841       -3.5760563352  W2        6684            0.0000000000
     20053      6685  TIP3      OH2            55.0723294280       28.1912775841       -4.4161463352  W2        6685            0.0000000000
     20054      6685  TIP3      H1             54.5711694280       28.1632175841       -5.2311763352  W2        6685            0.0000000000
     20055      6685  TIP3      H2             55.0776994280       27.2855975841       -4.1064163352  W2        6685            0.0000000000
     20056      6686  TIP3      OH2            54.8225994280       30.9716575841       -7.5321263352  W2        6686            0.0000000000
     20057      6686  TIP3      H1             55.7686594280       30.8273575841       -7.5511763352  W2        6686            0.0000000000
     20058      6686  TIP3      H2             54.7102294280       31.7559375841       -6.9950063352  W2        6686            0.0000000000
     20059      6687  TIP3      OH2            58.0668094280       33.7726175841      -11.3866563352  W2        6687            0.0000000000
     20060      6687  TIP3      H1             58.2188494280       33.4246575841      -10.5080063352  W2        6687            0.0000000000
     20061      6687  TIP3      H2             57.2158494280       33.4163475841      -11.6419363352  W2        6687            0.0000000000
     20062      6688  TIP3      OH2            57.3213794280       29.5148175841       -3.3728663352  W2        6688            0.0000000000
     20063      6688  TIP3      H1             57.5375094280       29.1533775841       -2.5132863352  W2        6688            0.0000000000
     20064      6688  TIP3      H2             56.4658494280       29.1401975841       -3.5825163352  W2        6688            0.0000000000
     20065      6689  TIP3      OH2            57.7812394280       23.2706675841       -4.4152263352  W2        6689            0.0000000000
     20066      6689  TIP3      H1             57.7431794280       23.6708275841       -3.5465163352  W2        6689            0.0000000000
     20067      6689  TIP3      H2             57.2903494280       22.4539075841       -4.3249363352  W2        6689            0.0000000000
     20068      6690  TIP3      OH2            54.3893194280       20.3868475841      -10.5647563352  W2        6690            0.0000000000
     20069      6690  TIP3      H1             55.0200894280       20.3580575841       -9.8453663352  W2        6690            0.0000000000
     20070      6690  TIP3      H2             54.8387494280       19.9617175841      -11.2951663352  W2        6690            0.0000000000
     20071      6691  TIP3      OH2            55.6635294280       21.1330475841      -15.1407163352  W2        6691            0.0000000000
     20072      6691  TIP3      H1             56.1376994280       21.7240375841      -15.7256263352  W2        6691            0.0000000000
     20073      6691  TIP3      H2             54.9461694280       21.6633375841      -14.7937063352  W2        6691            0.0000000000
     20074      6692  TIP3      OH2            57.4379694280       22.2277075841      -11.4572563352  W2        6692            0.0000000000
     20075      6692  TIP3      H1             56.5487694280       22.3272575841      -11.7972963352  W2        6692            0.0000000000
     20076      6692  TIP3      H2             57.7344594280       21.3860075841      -11.8034663352  W2        6692            0.0000000000
     20077      6693  TIP3      OH2            57.9003094280       27.9793775841       -1.1350263352  W2        6693            0.0000000000
     20078      6693  TIP3      H1             58.6325494280       28.2339675841       -0.5735763352  W2        6693            0.0000000000
     20079      6693  TIP3      H2             57.1201794280       28.1839175841       -0.6194863352  W2        6693            0.0000000000
     20080      6694  TIP3      OH2            58.2252794280       27.2827575841       -8.5285863352  W2        6694            0.0000000000
     20081      6694  TIP3      H1             58.9699994280       27.2803275841       -9.1299363352  W2        6694            0.0000000000
     20082      6694  TIP3      H2             58.3029394280       26.4591375841       -8.0470763352  W2        6694            0.0000000000
     20083      6695  TIP3      OH2            55.2332494280       25.7434475841       -3.2137363352  W2        6695            0.0000000000
     20084      6695  TIP3      H1             55.4561094280       25.3254075841       -2.3819863352  W2        6695            0.0000000000
     20085      6695  TIP3      H2             54.6312594280       25.1309475841       -3.6364563352  W2        6695            0.0000000000
     20086      6696  TIP3      OH2            56.3549894280       25.6629875841      -16.5371963352  W2        6696            0.0000000000
     20087      6696  TIP3      H1             56.9709794280       26.2897075841      -16.1577163352  W2        6696            0.0000000000
     20088      6696  TIP3      H2             55.4932494280       25.9789675841      -16.2655463352  W2        6696            0.0000000000
     20089      6697  TIP3      OH2            56.8671994280       20.4967175841       -3.6555963352  W2        6697            0.0000000000
     20090      6697  TIP3      H1             55.9744294280       20.8352575841       -3.7231963352  W2        6697            0.0000000000
     20091      6697  TIP3      H2             56.7684794280       19.6413275841       -3.2375163352  W2        6697            0.0000000000
     20092      6698  TIP3      OH2            56.5183994280       32.3011575841       -5.2206563352  W2        6698            0.0000000000
     20093      6698  TIP3      H1             56.7354294280       31.3693975841       -5.2516863352  W2        6698            0.0000000000
     20094      6698  TIP3      H2             56.7647494280       32.5756575841       -4.3373763352  W2        6698            0.0000000000
     20095      6699  TIP3      OH2            57.7700294280       27.5753675841      -15.0446363352  W2        6699            0.0000000000
     20096      6699  TIP3      H1             57.0839594280       27.9276175841      -14.4776663352  W2        6699            0.0000000000
     20097      6699  TIP3      H2             58.2928194280       28.3383275841      -15.2912063352  W2        6699            0.0000000000
     20098      6700  TIP3      OH2            58.3859194280       30.1892575841      -16.1478563352  W2        6700            0.0000000000
     20099      6700  TIP3      H1             58.9780694280       30.8887375841      -15.8716163352  W2        6700            0.0000000000
     20100      6700  TIP3      H2             58.8452194280       29.7562075841      -16.8673963352  W2        6700            0.0000000000
     20101      6701  TIP3      OH2            56.7018394280       22.8535575841      -17.0319163352  W2        6701            0.0000000000
     20102      6701  TIP3      H1             56.6570994280       23.7928675841      -16.8532163352  W2        6701            0.0000000000
     20103      6701  TIP3      H2             55.8141594280       22.6180475841      -17.3017063352  W2        6701            0.0000000000
     20104      6702  TIP3      OH2            57.5100394280       17.6352175841       -8.3588163352  W2        6702            0.0000000000
     20105      6702  TIP3      H1             57.2810194280       17.6944675841       -9.2863163352  W2        6702            0.0000000000
     20106      6702  TIP3      H2             57.0673794280       16.8437675841       -8.0524063352  W2        6702            0.0000000000
     20107      6703  TIP3      OH2            56.4403694280       31.5759275841      -12.1982363352  W2        6703            0.0000000000
     20108      6703  TIP3      H1             55.6082294280       32.0481975841      -12.1710963352  W2        6703            0.0000000000
     20109      6703  TIP3      H2             56.9861994280       32.0856875841      -12.7969263352  W2        6703            0.0000000000
     20110      6704  TIP3      OH2            55.7287394280       34.1882975841       -0.8684363352  W2        6704            0.0000000000
     20111      6704  TIP3      H1             56.2689594280       33.9716975841       -0.1085163352  W2        6704            0.0000000000
     20112      6704  TIP3      H2             55.2475394280       33.3828975841       -1.0581863352  W2        6704            0.0000000000
     20113      6705  TIP3      OH2            55.6356894280       27.9987075841        0.0859936648  W2        6705            0.0000000000
     20114      6705  TIP3      H1             55.7797394280       27.0967775841       -0.2003363352  W2        6705            0.0000000000
     20115      6705  TIP3      H2             54.8634294280       28.2849175841       -0.4017763352  W2        6705            0.0000000000
     20116      6706  TIP3      OH2            56.4683394280       25.1990375841       -0.4940763352  W2        6706            0.0000000000
     20117      6706  TIP3      H1             56.8764594280       24.3416975841       -0.6150163352  W2        6706            0.0000000000
     20118      6706  TIP3      H2             56.2080994280       25.2131675841        0.4269536648  W2        6706            0.0000000000
     20119      6707  TIP3      OH2            57.4136494280       20.6814175841       -0.4214463352  W2        6707            0.0000000000
     20120      6707  TIP3      H1             57.6253894280       19.9750275841       -1.0316963352  W2        6707            0.0000000000
     20121      6707  TIP3      H2             57.3023994280       20.2440175841        0.4226736648  W2        6707            0.0000000000
     20122      6708  TIP3      OH2            55.6631394280       29.8848275841      -16.7292563352  W2        6708            0.0000000000
     20123      6708  TIP3      H1             56.5770594280       29.9637175841      -16.4558663352  W2        6708            0.0000000000
     20124      6708  TIP3      H2             55.6704494280       29.1977875841      -17.3956963352  W2        6708            0.0000000000
     20125      6709  TIP3      OH2            54.3121994280       35.2776775841      -11.6518663352  W2        6709            0.0000000000
     20126      6709  TIP3      H1             53.6649094280       34.8158475841      -12.1847463352  W2        6709            0.0000000000
     20127      6709  TIP3      H2             54.6666594280       34.6060075841      -11.0692463352  W2        6709            0.0000000000
     20128      6710  TIP3      OH2            55.1821194280       33.3583775841       -9.8472463352  W2        6710            0.0000000000
     20129      6710  TIP3      H1             54.8477994280       32.4781075841       -9.6752263352  W2        6710            0.0000000000
     20130      6710  TIP3      H2             55.4043594280       33.7038775841       -8.9826863352  W2        6710            0.0000000000
     20131      6711  TIP3      OH2            55.2620694280       26.4339175841       -7.3957563352  W2        6711            0.0000000000
     20132      6711  TIP3      H1             55.4463594280       26.3520875841       -8.3314663352  W2        6711            0.0000000000
     20133      6711  TIP3      H2             56.1113594280       26.3096175841       -6.9721163352  W2        6711            0.0000000000
     20134      6712  TIP3      OH2            54.8595494280       21.7044175841       -1.2548763352  W2        6712            0.0000000000
     20135      6712  TIP3      H1             55.7790394280       21.5822475841       -1.0185663352  W2        6712            0.0000000000
     20136      6712  TIP3      H2             54.4099994280       20.9543875841       -0.8655263352  W2        6712            0.0000000000
     20137      6713  TIP3      OH2            56.0807994280       20.0165775841       -8.3635863352  W2        6713            0.0000000000
     20138      6713  TIP3      H1             56.5259594280       19.2248275841       -8.0616163352  W2        6713            0.0000000000
     20139      6713  TIP3      H2             56.5470994280       20.7330975841       -7.9330263352  W2        6713            0.0000000000
     20140      6714  TIP3      OH2            54.3848294280       23.0158775841       -7.2945663352  W2        6714            0.0000000000
     20141      6714  TIP3      H1             54.8768094280       22.7949275841       -8.0853663352  W2        6714            0.0000000000
     20142      6714  TIP3      H2             54.7469194280       23.8562175841       -7.0136163352  W2        6714            0.0000000000
     20143      6715  TIP3      OH2            54.6984794280       19.2737875841      -13.2403263352  W2        6715            0.0000000000
     20144      6715  TIP3      H1             53.7733194280       19.4824475841      -13.3697763352  W2        6715            0.0000000000
     20145      6715  TIP3      H2             55.1524694280       19.7578675841      -13.9300963352  W2        6715            0.0000000000
     20146      6716  TIP3      OH2            54.6620194280       18.0116875841       -4.8960763352  W2        6716            0.0000000000
     20147      6716  TIP3      H1             53.9970694280       17.7657175841       -4.2529863352  W2        6716            0.0000000000
     20148      6716  TIP3      H2             54.2191494280       18.6337275841       -5.4732763352  W2        6716            0.0000000000
     20149      6717  TIP3      OH2            56.8539494280       31.1870975841       -0.7514963352  W2        6717            0.0000000000
     20150      6717  TIP3      H1             56.0331994280       31.3617475841       -1.2120263352  W2        6717            0.0000000000
     20151      6717  TIP3      H2             56.6017294280       31.1135675841        0.1689436648  W2        6717            0.0000000000
     20152      6718  TIP3      OH2            57.2099094280       35.4176075841       -4.4455663352  W2        6718            0.0000000000
     20153      6718  TIP3      H1             56.4895494280       35.8577075841       -4.8967963352  W2        6718            0.0000000000
     20154      6718  TIP3      H2             56.8443094280       35.1670775841       -3.5971663352  W2        6718            0.0000000000
     20155      6719  TIP3      OH2            56.6247194280       34.0408575841       -7.5353863352  W2        6719            0.0000000000
     20156      6719  TIP3      H1             56.6063194280       33.6153675841       -6.6781563352  W2        6719            0.0000000000
     20157      6719  TIP3      H2             57.4295094280       33.7223575841       -7.9441663352  W2        6719            0.0000000000
     20158      6720  TIP3      OH2            57.1383994280       17.5187475841      -11.0652763352  W2        6720            0.0000000000
     20159      6720  TIP3      H1             56.3613794280       17.2842375841      -11.5726863352  W2        6720            0.0000000000
     20160      6720  TIP3      H2             57.6687594280       16.7219575841      -11.0564763352  W2        6720            0.0000000000
     20161      6721  TIP3      OH2            55.9747394280       17.3165575841      -15.2616663352  W2        6721            0.0000000000
     20162      6721  TIP3      H1             56.4138094280       17.9276075841      -15.8533163352  W2        6721            0.0000000000
     20163      6721  TIP3      H2             55.3409794280       17.8549675841      -14.7876663352  W2        6721            0.0000000000
     20164      6722  TIP3      OH2            55.8756894280       33.2647775841      -14.3641563352  W2        6722            0.0000000000
     20165      6722  TIP3      H1             55.1906794280       33.2266675841      -15.0316463352  W2        6722            0.0000000000
     20166      6722  TIP3      H2             55.8794094280       34.1775375841      -14.0759463352  W2        6722            0.0000000000
     20167      6723  TIP3      OH2            57.8356494280       19.2327075841      -16.8192563352  W2        6723            0.0000000000
     20168      6723  TIP3      H1             58.3269894280       18.6029475841      -17.3467063352  W2        6723            0.0000000000
     20169      6723  TIP3      H2             58.4592794280       19.5286475841      -16.1561363352  W2        6723            0.0000000000
     20170      6724  TIP3      OH2            57.0961994280       18.0329375841       -1.5476563352  W2        6724            0.0000000000
     20171      6724  TIP3      H1             56.7300194280       17.2671975841       -1.1051863352  W2        6724            0.0000000000
     20172      6724  TIP3      H2             58.0090494280       18.0619575841       -1.2611463352  W2        6724            0.0000000000
     20173      6725  TIP3      OH2            57.6938094280       34.1848575841      -17.3389463352  W2        6725            0.0000000000
     20174      6725  TIP3      H1             57.4262694280       34.4711475841      -16.4656363352  W2        6725            0.0000000000
     20175      6725  TIP3      H2             58.4650694280       33.6387775841      -17.1866963352  W2        6725            0.0000000000
     20176      6726  TIP3      OH2           -46.9193405720       45.5309775841      -11.1065263352  W2        6726            0.0000000000
     20177      6726  TIP3      H1            -46.8302305720       46.4747975841      -11.2388163352  W2        6726            0.0000000000
     20178      6726  TIP3      H2            -47.5575805720       45.2556175841      -11.7645863352  W2        6726            0.0000000000
     20179      6727  TIP3      OH2           -47.9862105720       44.7860475841       -7.6877063352  W2        6727            0.0000000000
     20180      6727  TIP3      H1            -48.0244605720       44.1396775841       -6.9827463352  W2        6727            0.0000000000
     20181      6727  TIP3      H2            -48.3085605720       44.3194875841       -8.4588363352  W2        6727            0.0000000000
     20182      6728  TIP3      OH2           -55.6177105720       44.4002575841       -6.0947163352  W2        6728            0.0000000000
     20183      6728  TIP3      H1            -55.5765005720       43.7745875841       -5.3714763352  W2        6728            0.0000000000
     20184      6728  TIP3      H2            -54.9149405720       45.0241175841       -5.9126763352  W2        6728            0.0000000000
     20185      6729  TIP3      OH2           -44.2801905720       47.7250875841       -9.3861963352  W2        6729            0.0000000000
     20186      6729  TIP3      H1            -44.7209205720       47.0046875841       -8.9356363352  W2        6729            0.0000000000
     20187      6729  TIP3      H2            -44.2932205720       48.4458075841       -8.7564263352  W2        6729            0.0000000000
     20188      6730  TIP3      OH2           -54.6944005720       48.8501475841       -7.5598063352  W2        6730            0.0000000000
     20189      6730  TIP3      H1            -55.0638805720       48.0481975841       -7.9293763352  W2        6730            0.0000000000
     20190      6730  TIP3      H2            -53.7532905720       48.6816375841       -7.5134663352  W2        6730            0.0000000000
     20191      6731  TIP3      OH2           -58.0843505720       42.5104075841      -12.1669263352  W2        6731            0.0000000000
     20192      6731  TIP3      H1            -58.5320105720       43.3562775841      -12.1852763352  W2        6731            0.0000000000
     20193      6731  TIP3      H2            -58.6452305720       41.9308275841      -12.6824163352  W2        6731            0.0000000000
     20194      6732  TIP3      OH2           -57.3737405720       44.6723675841      -10.0411263352  W2        6732            0.0000000000
     20195      6732  TIP3      H1            -57.1603905720       43.9025275841       -9.5138263352  W2        6732            0.0000000000
     20196      6732  TIP3      H2            -56.6359805720       44.7620375841      -10.6443663352  W2        6732            0.0000000000
     20197      6733  TIP3      OH2           -47.1686405720       52.8292575841       -9.1741563352  W2        6733            0.0000000000
     20198      6733  TIP3      H1            -46.5490005720       52.1527275841       -9.4472363352  W2        6733            0.0000000000
     20199      6733  TIP3      H2            -47.3769005720       52.6113375841       -8.2656663352  W2        6733            0.0000000000
     20200      6734  TIP3      OH2           -49.5967705720       47.2181875841       -7.2816063352  W2        6734            0.0000000000
     20201      6734  TIP3      H1            -49.2929805720       46.5323275841       -7.8761963352  W2        6734            0.0000000000
     20202      6734  TIP3      H2            -48.8753705720       47.3370575841       -6.6638063352  W2        6734            0.0000000000
     20203      6735  TIP3      OH2           -40.9337905720       38.8197175841       -6.4209863352  W2        6735            0.0000000000
     20204      6735  TIP3      H1            -40.8845705720       39.4298375841       -5.6850763352  W2        6735            0.0000000000
     20205      6735  TIP3      H2            -40.5082805720       39.2808075841       -7.1438763352  W2        6735            0.0000000000
     20206      6736  TIP3      OH2           -46.4560705720       41.6124275841       -6.9541263352  W2        6736            0.0000000000
     20207      6736  TIP3      H1            -46.3134805720       40.6661275841       -6.9339663352  W2        6736            0.0000000000
     20208      6736  TIP3      H2            -46.5621705720       41.8194075841       -7.8826363352  W2        6736            0.0000000000
     20209      6737  TIP3      OH2           -53.3012405720       39.7140675841       -9.6816463352  W2        6737            0.0000000000
     20210      6737  TIP3      H1            -53.2581305720       40.5739175841      -10.1000163352  W2        6737            0.0000000000
     20211      6737  TIP3      H2            -53.7588305720       39.1615375841      -10.3153263352  W2        6737            0.0000000000
     20212      6738  TIP3      OH2           -45.5789705720       39.8446275841      -11.2808163352  W2        6738            0.0000000000
     20213      6738  TIP3      H1            -44.9325405720       39.5159475841      -10.6560563352  W2        6738            0.0000000000
     20214      6738  TIP3      H2            -45.0690305720       40.3625275841      -11.9036763352  W2        6738            0.0000000000
     20215      6739  TIP3      OH2           -56.6810905720       42.1106475841       -8.9195063352  W2        6739            0.0000000000
     20216      6739  TIP3      H1            -56.0274305720       41.5608175841       -8.4874963352  W2        6739            0.0000000000
     20217      6739  TIP3      H2            -56.6571605720       41.8365475841       -9.8363063352  W2        6739            0.0000000000
     20218      6740  TIP3      OH2           -51.5246405720       43.6607775841       -9.7043563352  W2        6740            0.0000000000
     20219      6740  TIP3      H1            -50.9085405720       43.1343175841       -9.1949563352  W2        6740            0.0000000000
     20220      6740  TIP3      H2            -52.1107605720       43.0206475841      -10.1079963352  W2        6740            0.0000000000
     20221      6741  TIP3      OH2           -40.5423305720       40.2976375841       -4.1850063352  W2        6741            0.0000000000
     20222      6741  TIP3      H1            -41.2308705720       40.9557075841       -4.2803463352  W2        6741            0.0000000000
     20223      6741  TIP3      H2            -40.5268705720       40.1004275841       -3.2484663352  W2        6741            0.0000000000
     20224      6742  TIP3      OH2           -54.4910505720       38.6319075841       -5.6075663352  W2        6742            0.0000000000
     20225      6742  TIP3      H1            -54.7098805720       39.1619675841       -6.3739663352  W2        6742            0.0000000000
     20226      6742  TIP3      H2            -55.1589605720       38.8584575841       -4.9604263352  W2        6742            0.0000000000
     20227      6743  TIP3      OH2           -47.1220705720       48.1320175841      -12.0636563352  W2        6743            0.0000000000
     20228      6743  TIP3      H1            -47.4175605720       47.8092475841      -12.9149663352  W2        6743            0.0000000000
     20229      6743  TIP3      H2            -47.4462905720       49.0316875841      -12.0223963352  W2        6743            0.0000000000
     20230      6744  TIP3      OH2           -51.9219105720       46.3074775841       -5.3201963352  W2        6744            0.0000000000
     20231      6744  TIP3      H1            -52.6620005720       46.9056275841       -5.2166763352  W2        6744            0.0000000000
     20232      6744  TIP3      H2            -51.2079605720       46.8614375841       -5.6358363352  W2        6744            0.0000000000
     20233      6745  TIP3      OH2           -43.8151305720       39.1355575841       -9.3002263352  W2        6745            0.0000000000
     20234      6745  TIP3      H1            -44.0303305720       38.3698975841       -8.7676263352  W2        6745            0.0000000000
     20235      6745  TIP3      H2            -43.1593905720       39.6080175841       -8.7873763352  W2        6745            0.0000000000
     20236      6746  TIP3      OH2           -54.8973205720       40.5240875841       -7.6553463352  W2        6746            0.0000000000
     20237      6746  TIP3      H1            -54.2836905720       41.1568475841       -7.2821063352  W2        6746            0.0000000000
     20238      6746  TIP3      H2            -54.3852505720       40.0515875841       -8.3116563352  W2        6746            0.0000000000
     20239      6747  TIP3      OH2           -53.5144805720       48.2717775841       -4.5330463352  W2        6747            0.0000000000
     20240      6747  TIP3      H1            -53.5197205720       49.1511275841       -4.9111163352  W2        6747            0.0000000000
     20241      6747  TIP3      H2            -54.3680705720       48.1881875841       -4.1080563352  W2        6747            0.0000000000
     20242      6748  TIP3      OH2           -57.3933905720       47.9425675841      -13.7511163352  W2        6748            0.0000000000
     20243      6748  TIP3      H1            -57.6653005720       48.1716675841      -14.6398263352  W2        6748            0.0000000000
     20244      6748  TIP3      H2            -57.3478205720       48.7804475841      -13.2905863352  W2        6748            0.0000000000
     20245      6749  TIP3      OH2           -43.7684205720       49.5641575841       -7.0382663352  W2        6749            0.0000000000
     20246      6749  TIP3      H1            -44.7100505720       49.6225475841       -6.8765763352  W2        6749            0.0000000000
     20247      6749  TIP3      H2            -43.4918105720       50.4702075841       -7.1752963352  W2        6749            0.0000000000
     20248      6750  TIP3      OH2           -43.4677205720       37.8506875841       -5.6208763352  W2        6750            0.0000000000
     20249      6750  TIP3      H1            -44.2038005720       38.4613975841       -5.6587463352  W2        6750            0.0000000000
     20250      6750  TIP3      H2            -42.7843205720       38.2655875841       -6.1472363352  W2        6750            0.0000000000
     20251      6751  TIP3      OH2           -50.4645805720       35.9374175841       -8.1550763352  W2        6751            0.0000000000
     20252      6751  TIP3      H1            -50.5821605720       34.9890175841       -8.2092463352  W2        6751            0.0000000000
     20253      6751  TIP3      H2            -51.3195705720       36.2700275841       -7.8819663352  W2        6751            0.0000000000
     20254      6752  TIP3      OH2           -45.5163005720       51.3455075841      -10.4131063352  W2        6752            0.0000000000
     20255      6752  TIP3      H1            -45.0910705720       50.6382975841      -10.8981463352  W2        6752            0.0000000000
     20256      6752  TIP3      H2            -45.1993005720       52.1467775841      -10.8298863352  W2        6752            0.0000000000
     20257      6753  TIP3      OH2           -44.3566505720       49.2463575841      -11.9044463352  W2        6753            0.0000000000
     20258      6753  TIP3      H1            -44.6141705720       48.5563675841      -12.5158563352  W2        6753            0.0000000000
     20259      6753  TIP3      H2            -44.2855705720       48.8034775841      -11.0588563352  W2        6753            0.0000000000
     20260      6754  TIP3      OH2           -42.6706305720       47.8130275841       -3.4270963352  W2        6754            0.0000000000
     20261      6754  TIP3      H1            -42.5310005720       47.2212775841       -4.1663963352  W2        6754            0.0000000000
     20262      6754  TIP3      H2            -42.5033505720       48.6856175841       -3.7832163352  W2        6754            0.0000000000
     20263      6755  TIP3      OH2           -48.1980905720       44.7749775841      -13.6544963352  W2        6755            0.0000000000
     20264      6755  TIP3      H1            -48.9095405720       45.3099475841      -14.0064463352  W2        6755            0.0000000000
     20265      6755  TIP3      H2            -47.5071305720       44.8301875841      -14.3146063352  W2        6755            0.0000000000
     20266      6756  TIP3      OH2           -48.1441705720       43.2324075841      -16.6159963352  W2        6756            0.0000000000
     20267      6756  TIP3      H1            -47.4431805720       43.2550975841      -15.9645963352  W2        6756            0.0000000000
     20268      6756  TIP3      H2            -47.8418805720       42.6043775841      -17.2720663352  W2        6756            0.0000000000
     20269      6757  TIP3      OH2           -40.8287005720       44.1528275841       -5.3610563352  W2        6757            0.0000000000
     20270      6757  TIP3      H1            -41.4812905720       44.8473875841       -5.2719663352  W2        6757            0.0000000000
     20271      6757  TIP3      H2            -40.3636705720       44.3629175841       -6.1708963352  W2        6757            0.0000000000
     20272      6758  TIP3      OH2           -44.7923205720       44.9843075841      -12.7029063352  W2        6758            0.0000000000
     20273      6758  TIP3      H1            -45.5242205720       45.2126775841      -12.1298463352  W2        6758            0.0000000000
     20274      6758  TIP3      H2            -44.3451005720       44.2705775841      -12.2481563352  W2        6758            0.0000000000
     20275      6759  TIP3      OH2           -44.8949705720       43.1585675841       -3.6352063352  W2        6759            0.0000000000
     20276      6759  TIP3      H1            -44.8150605720       43.9220075841       -3.0633563352  W2        6759            0.0000000000
     20277      6759  TIP3      H2            -45.4962005720       43.4378075841       -4.3256963352  W2        6759            0.0000000000
     20278      6760  TIP3      OH2           -53.1469505720       45.6149275841      -10.8204063352  W2        6760            0.0000000000
     20279      6760  TIP3      H1            -53.4774305720       45.2442675841      -11.6387063352  W2        6760            0.0000000000
     20280      6760  TIP3      H2            -52.5585405720       44.9443275841      -10.4735763352  W2        6760            0.0000000000
     20281      6761  TIP3      OH2           -51.7802005720       49.0429875841       -8.1391863352  W2        6761            0.0000000000
     20282      6761  TIP3      H1            -51.8750705720       48.4642975841       -8.8957263352  W2        6761            0.0000000000
     20283      6761  TIP3      H2            -51.0508405720       48.6715575841       -7.6429063352  W2        6761            0.0000000000
     20284      6762  TIP3      OH2           -52.7804005720       44.3834875841       -7.1869063352  W2        6762            0.0000000000
     20285      6762  TIP3      H1            -52.2151505720       44.5049075841       -7.9497863352  W2        6762            0.0000000000
     20286      6762  TIP3      H2            -52.4615105720       45.0209875841       -6.5480563352  W2        6762            0.0000000000
     20287      6763  TIP3      OH2           -46.4711805720       49.8866775841       -6.4528563352  W2        6763            0.0000000000
     20288      6763  TIP3      H1            -46.7115205720       50.5489875841       -5.8049363352  W2        6763            0.0000000000
     20289      6763  TIP3      H2            -46.6693605720       49.0521975841       -6.0278963352  W2        6763            0.0000000000
     20290      6764  TIP3      OH2           -51.9003305720       48.7827575841       -2.4697163352  W2        6764            0.0000000000
     20291      6764  TIP3      H1            -52.2115805720       49.5650775841       -2.0143963352  W2        6764            0.0000000000
     20292      6764  TIP3      H2            -52.5503105720       48.6296675841       -3.1555163352  W2        6764            0.0000000000
     20293      6765  TIP3      OH2           -45.9213705720       44.1465975841      -15.0177863352  W2        6765            0.0000000000
     20294      6765  TIP3      H1            -45.3418205720       44.2966275841      -14.2708963352  W2        6765            0.0000000000
     20295      6765  TIP3      H2            -45.5073705720       44.6173375841      -15.7411463352  W2        6765            0.0000000000
     20296      6766  TIP3      OH2           -54.9803405720       44.9808675841       -3.2411463352  W2        6766            0.0000000000
     20297      6766  TIP3      H1            -54.9100205720       45.6315475841       -2.5426463352  W2        6766            0.0000000000
     20298      6766  TIP3      H2            -55.8711205720       45.0836175841       -3.5760563352  W2        6766            0.0000000000
     20299      6767  TIP3      OH2           -48.1948805720       50.8834475841      -11.5824763352  W2        6767            0.0000000000
     20300      6767  TIP3      H1            -47.7211205720       51.1790775841      -10.8050563352  W2        6767            0.0000000000
     20301      6767  TIP3      H2            -48.7579505720       51.6216075841      -11.8155163352  W2        6767            0.0000000000
     20302      6768  TIP3      OH2           -53.6607405720       50.8542575841       -1.7063363352  W2        6768            0.0000000000
     20303      6768  TIP3      H1            -53.6532105720       50.7182275841       -2.6537863352  W2        6768            0.0000000000
     20304      6768  TIP3      H2            -54.5767005720       50.7370675841       -1.4543363352  W2        6768            0.0000000000
     20305      6769  TIP3      OH2           -42.2225305720       35.8966375841      -15.2048163352  W2        6769            0.0000000000
     20306      6769  TIP3      H1            -43.1224605720       36.0355375841      -14.9097563352  W2        6769            0.0000000000
     20307      6769  TIP3      H2            -41.9706905720       36.7280975841      -15.6066463352  W2        6769            0.0000000000
     20308      6770  TIP3      OH2           -54.1566805720       44.6843575841      -13.2311263352  W2        6770            0.0000000000
     20309      6770  TIP3      H1            -54.4485505720       45.4525275841      -13.7219963352  W2        6770            0.0000000000
     20310      6770  TIP3      H2            -54.8311605720       44.0249775841      -13.3939863352  W2        6770            0.0000000000
     20311      6771  TIP3      OH2           -41.0333905720       50.2628775841      -16.8284263352  W2        6771            0.0000000000
     20312      6771  TIP3      H1            -40.9600405720       51.2018975841      -16.6578963352  W2        6771            0.0000000000
     20313      6771  TIP3      H2            -40.1278805720       49.9577375841      -16.8846963352  W2        6771            0.0000000000
     20314      6772  TIP3      OH2           -58.0636705720       47.0472775841       -4.4161463352  W2        6772            0.0000000000
     20315      6772  TIP3      H1            -58.5648305720       47.0192175841       -5.2311763352  W2        6772            0.0000000000
     20316      6772  TIP3      H2            -58.0583005720       46.1415975841       -4.1064163352  W2        6772            0.0000000000
     20317      6773  TIP3      OH2           -58.3134005720       49.8276575841       -7.5321263352  W2        6773            0.0000000000
     20318      6773  TIP3      H1            -57.3673405720       49.6833575841       -7.5511763352  W2        6773            0.0000000000
     20319      6773  TIP3      H2            -58.4257705720       50.6119375841       -6.9950063352  W2        6773            0.0000000000
     20320      6774  TIP3      OH2           -40.1155505720       50.4936275841       -1.8497563352  W2        6774            0.0000000000
     20321      6774  TIP3      H1            -40.1648705720       49.5384375841       -1.8869963352  W2        6774            0.0000000000
     20322      6774  TIP3      H2            -40.9423205720       50.7611575841       -1.4483763352  W2        6774            0.0000000000
     20323      6775  TIP3      OH2           -49.1371505720       50.0675475841       -2.9736163352  W2        6775            0.0000000000
     20324      6775  TIP3      H1            -49.0496905720       50.8940075841       -2.4987063352  W2        6775            0.0000000000
     20325      6775  TIP3      H2            -50.0006405720       49.7379275841       -2.7246863352  W2        6775            0.0000000000
     20326      6776  TIP3      OH2           -48.7225705720       53.8399175841      -13.1675563352  W2        6776            0.0000000000
     20327      6776  TIP3      H1            -48.7979705720       53.7186375841      -14.1140363352  W2        6776            0.0000000000
     20328      6776  TIP3      H2            -48.6897005720       54.7891875841      -13.0490963352  W2        6776            0.0000000000
     20329      6777  TIP3      OH2           -55.0691905720       52.6286175841      -11.3866563352  W2        6777            0.0000000000
     20330      6777  TIP3      H1            -54.9171505720       52.2806575841      -10.5080063352  W2        6777            0.0000000000
     20331      6777  TIP3      H2            -55.9201505720       52.2723475841      -11.6419363352  W2        6777            0.0000000000
     20332      6778  TIP3      OH2           -45.6209705720       52.9939375841      -16.1653163352  W2        6778            0.0000000000
     20333      6778  TIP3      H1            -45.2461305720       52.2495475841      -16.6360563352  W2        6778            0.0000000000
     20334      6778  TIP3      H2            -45.6166005720       52.7239975841      -15.2469863352  W2        6778            0.0000000000
     20335      6779  TIP3      OH2           -45.9521605720       52.9196475841      -13.4160963352  W2        6779            0.0000000000
     20336      6779  TIP3      H1            -46.8871805720       53.0198375841      -13.2373963352  W2        6779            0.0000000000
     20337      6779  TIP3      H2            -45.6719705720       52.2102475841      -12.8377763352  W2        6779            0.0000000000
     20338      6780  TIP3      OH2           -42.9635705720       41.9868775841       -1.3695363352  W2        6780            0.0000000000
     20339      6780  TIP3      H1            -43.3708905720       42.4674375841       -2.0902063352  W2        6780            0.0000000000
     20340      6780  TIP3      H2            -42.9230005720       41.0814775841       -1.6774563352  W2        6780            0.0000000000
     20341      6781  TIP3      OH2           -55.8146205720       48.3708175841       -3.3728663352  W2        6781            0.0000000000
     20342      6781  TIP3      H1            -55.5984905720       48.0093775841       -2.5132863352  W2        6781            0.0000000000
     20343      6781  TIP3      H2            -56.6701505720       47.9961975841       -3.5825163352  W2        6781            0.0000000000
     20344      6782  TIP3      OH2           -53.1958205720       36.8408675841       -7.3774463352  W2        6782            0.0000000000
     20345      6782  TIP3      H1            -54.0574505720       36.7536875841       -7.7851563352  W2        6782            0.0000000000
     20346      6782  TIP3      H2            -53.2182505720       37.6968775841       -6.9496863352  W2        6782            0.0000000000
     20347      6783  TIP3      OH2           -48.5330405720       36.5629075841       -4.0027463352  W2        6783            0.0000000000
     20348      6783  TIP3      H1            -48.1127305720       36.1476175841       -3.2496863352  W2        6783            0.0000000000
     20349      6783  TIP3      H2            -49.4660805720       36.3842375841       -3.8855463352  W2        6783            0.0000000000
     20350      6784  TIP3      OH2           -45.2065505720       40.3184275841       -3.1492963352  W2        6784            0.0000000000
     20351      6784  TIP3      H1            -45.7206005720       40.1926475841       -2.3516963352  W2        6784            0.0000000000
     20352      6784  TIP3      H2            -45.3620805720       41.2307375841       -3.3936763352  W2        6784            0.0000000000
     20353      6785  TIP3      OH2           -44.4440605720       45.1794275841      -17.3879963352  W2        6785            0.0000000000
     20354      6785  TIP3      H1            -44.4019805720       44.9568175841      -18.3179963352  W2        6785            0.0000000000
     20355      6785  TIP3      H2            -43.5948505720       45.5781375841      -17.1980063352  W2        6785            0.0000000000
     20356      6786  TIP3      OH2           -48.8713105720       39.0552475841      -16.7176663352  W2        6786            0.0000000000
     20357      6786  TIP3      H1            -49.1248305720       39.0744075841      -15.7948563352  W2        6786            0.0000000000
     20358      6786  TIP3      H2            -49.1281005720       38.1837875841      -17.0190463352  W2        6786            0.0000000000
     20359      6787  TIP3      OH2           -53.1048105720       41.8063175841       -6.2824263352  W2        6787            0.0000000000
     20360      6787  TIP3      H1            -53.7466005720       41.7660475841       -5.5734163352  W2        6787            0.0000000000
     20361      6787  TIP3      H2            -53.0676105720       42.7327875841       -6.5201263352  W2        6787            0.0000000000
     20362      6788  TIP3      OH2           -53.1079005720       42.0273275841      -11.3704263352  W2        6788            0.0000000000
     20363      6788  TIP3      H1            -54.0006105720       41.6869375841      -11.4290463352  W2        6788            0.0000000000
     20364      6788  TIP3      H2            -52.6572405720       41.6504175841      -12.1261063352  W2        6788            0.0000000000
     20365      6789  TIP3      OH2           -47.5723505720       42.4433575841      -12.5533463352  W2        6789            0.0000000000
     20366      6789  TIP3      H1            -47.9813205720       43.2582175841      -12.8448663352  W2        6789            0.0000000000
     20367      6789  TIP3      H2            -46.8517305720       42.3033675841      -13.1676363352  W2        6789            0.0000000000
     20368      6790  TIP3      OH2           -48.4701905720       42.6189975841       -1.0652763352  W2        6790            0.0000000000
     20369      6790  TIP3      H1            -49.0328105720       41.9141575841       -0.7444963352  W2        6790            0.0000000000
     20370      6790  TIP3      H2            -47.6438505720       42.4981875841       -0.5975163352  W2        6790            0.0000000000
     20371      6791  TIP3      OH2           -46.5675805720       41.8893975841       -9.7393763352  W2        6791            0.0000000000
     20372      6791  TIP3      H1            -46.7631305720       42.4950775841      -10.4543163352  W2        6791            0.0000000000
     20373      6791  TIP3      H2            -46.3863205720       41.0559175841      -10.1737463352  W2        6791            0.0000000000
     20374      6792  TIP3      OH2           -55.3547605720       42.1266675841       -4.4152263352  W2        6792            0.0000000000
     20375      6792  TIP3      H1            -55.3928205720       42.5268275841       -3.5465163352  W2        6792            0.0000000000
     20376      6792  TIP3      H2            -55.8456505720       41.3099075841       -4.3249363352  W2        6792            0.0000000000
     20377      6793  TIP3      OH2           -51.9890205720       39.5008975841      -17.6166263352  W2        6793            0.0000000000
     20378      6793  TIP3      H1            -52.4199505720       39.0559075841      -16.8868863352  W2        6793            0.0000000000
     20379      6793  TIP3      H2            -52.7071505720       39.8725275841      -18.1288763352  W2        6793            0.0000000000
     20380      6794  TIP3      OH2           -58.7466805720       39.2428475841      -10.5647563352  W2        6794            0.0000000000
     20381      6794  TIP3      H1            -58.1159105720       39.2140575841       -9.8453663352  W2        6794            0.0000000000
     20382      6794  TIP3      H2            -58.2972505720       38.8177175841      -11.2951663352  W2        6794            0.0000000000
     20383      6795  TIP3      OH2           -57.4724705720       39.9890475841      -15.1407163352  W2        6795            0.0000000000
     20384      6795  TIP3      H1            -56.9983005720       40.5800375841      -15.7256263352  W2        6795            0.0000000000
     20385      6795  TIP3      H2            -58.1898305720       40.5193375841      -14.7937063352  W2        6795            0.0000000000
     20386      6796  TIP3      OH2           -47.3036605720       43.5275275841       -5.0681363352  W2        6796            0.0000000000
     20387      6796  TIP3      H1            -46.9801805720       42.8964975841       -5.7110863352  W2        6796            0.0000000000
     20388      6796  TIP3      H2            -47.7437305720       42.9927475841       -4.4073963352  W2        6796            0.0000000000
     20389      6797  TIP3      OH2           -50.5263705720       39.4550775841      -10.2840163352  W2        6797            0.0000000000
     20390      6797  TIP3      H1            -51.4372605720       39.5117575841       -9.9954163352  W2        6797            0.0000000000
     20391      6797  TIP3      H2            -50.0210805720       39.3946275841       -9.4732963352  W2        6797            0.0000000000
     20392      6798  TIP3      OH2           -55.6980305720       41.0837075841      -11.4572563352  W2        6798            0.0000000000
     20393      6798  TIP3      H1            -56.5872305720       41.1832575841      -11.7972963352  W2        6798            0.0000000000
     20394      6798  TIP3      H2            -55.4015405720       40.2420075841      -11.8034663352  W2        6798            0.0000000000
     20395      6799  TIP3      OH2           -52.0448505720       41.0839675841      -13.8007963352  W2        6799            0.0000000000
     20396      6799  TIP3      H1            -51.1133005720       41.2129675841      -13.6224863352  W2        6799            0.0000000000
     20397      6799  TIP3      H2            -52.2598205720       41.7533975841      -14.4503263352  W2        6799            0.0000000000
     20398      6800  TIP3      OH2           -46.1211805720       38.6897075841       -7.0198363352  W2        6800            0.0000000000
     20399      6800  TIP3      H1            -46.7980205720       38.8210175841       -6.3558663352  W2        6800            0.0000000000
     20400      6800  TIP3      H2            -46.6066905720       38.5346575841       -7.8300663352  W2        6800            0.0000000000
     20401      6801  TIP3      OH2           -53.3708305720       42.2781875841      -16.2341863352  W2        6801            0.0000000000
     20402      6801  TIP3      H1            -53.9133205720       41.8985675841      -16.9254263352  W2        6801            0.0000000000
     20403      6801  TIP3      H2            -52.5373405720       42.4726575841      -16.6627763352  W2        6801            0.0000000000
     20404      6802  TIP3      OH2           -42.8336705720       54.3612475841       -0.7430763352  W2        6802            0.0000000000
     20405      6802  TIP3      H1            -42.6338005720       54.7854375841       -1.5775463352  W2        6802            0.0000000000
     20406      6802  TIP3      H2            -42.1783005720       54.7050675841       -0.1360363352  W2        6802            0.0000000000
     20407      6803  TIP3      OH2           -55.2356905720       46.8353775841       -1.1350263352  W2        6803            0.0000000000
     20408      6803  TIP3      H1            -54.5034505720       47.0899675841       -0.5735763352  W2        6803            0.0000000000
     20409      6803  TIP3      H2            -56.0158205720       47.0399175841       -0.6194863352  W2        6803            0.0000000000
     20410      6804  TIP3      OH2           -49.2064005720       42.2423775841       -8.3970563352  W2        6804            0.0000000000
     20411      6804  TIP3      H1            -48.6420605720       41.6960375841       -8.9440963352  W2        6804            0.0000000000
     20412      6804  TIP3      H2            -49.3540605720       41.7205675841       -7.6082963352  W2        6804            0.0000000000
     20413      6805  TIP3      OH2           -54.2044305720       38.3789875841      -11.9785763352  W2        6805            0.0000000000
     20414      6805  TIP3      H1            -54.5214805720       37.4765175841      -12.0140363352  W2        6805            0.0000000000
     20415      6805  TIP3      H2            -53.4230205720       38.3807275841      -12.5314163352  W2        6805            0.0000000000
     20416      6806  TIP3      OH2           -50.5798105720       40.6309875841       -5.9830163352  W2        6806            0.0000000000
     20417      6806  TIP3      H1            -51.4152805720       41.0849375841       -5.8727763352  W2        6806            0.0000000000
     20418      6806  TIP3      H2            -50.0557505720       40.9068375841       -5.2310263352  W2        6806            0.0000000000
     20419      6807  TIP3      OH2           -50.0355505720       46.8437575841      -14.2983763352  W2        6807            0.0000000000
     20420      6807  TIP3      H1            -50.7804505720       46.3362875841      -14.6205863352  W2        6807            0.0000000000
     20421      6807  TIP3      H2            -50.1698305720       46.8925575841      -13.3518963352  W2        6807            0.0000000000
     20422      6808  TIP3      OH2           -42.8856605720       45.9765775841       -5.5116163352  W2        6808            0.0000000000
     20423      6808  TIP3      H1            -42.2437805720       46.4332075841       -6.0553963352  W2        6808            0.0000000000
     20424      6808  TIP3      H2            -43.7159705720       46.0898175841       -5.9742063352  W2        6808            0.0000000000
     20425      6809  TIP3      OH2           -46.1378705720       39.6577475841      -16.0991163352  W2        6809            0.0000000000
     20426      6809  TIP3      H1            -47.0764505720       39.7693075841      -16.2502363352  W2        6809            0.0000000000
     20427      6809  TIP3      H2            -45.8406605720       40.5144375841      -15.7925463352  W2        6809            0.0000000000
     20428      6810  TIP3      OH2           -48.5163405720       47.0280875841       -3.0614663352  W2        6810            0.0000000000
     20429      6810  TIP3      H1            -48.8617305720       46.6463275841       -2.2545063352  W2        6810            0.0000000000
     20430      6810  TIP3      H2            -48.7163305720       47.9614475841       -2.9901763352  W2        6810            0.0000000000
     20431      6811  TIP3      OH2           -45.4195205720       41.5250175841      -14.4383763352  W2        6811            0.0000000000
     20432      6811  TIP3      H1            -44.5276205720       41.3875175841      -14.1192563352  W2        6811            0.0000000000
     20433      6811  TIP3      H2            -45.3631605720       42.3156275841      -14.9750263352  W2        6811            0.0000000000
     20434      6812  TIP3      OH2           -54.9107205720       46.1387575841       -8.5285863352  W2        6812            0.0000000000
     20435      6812  TIP3      H1            -54.1660005720       46.1363275841       -9.1299363352  W2        6812            0.0000000000
     20436      6812  TIP3      H2            -54.8330605720       45.3151375841       -8.0470763352  W2        6812            0.0000000000
     20437      6813  TIP3      OH2           -47.9101405720       48.3021875841      -15.2729163352  W2        6813            0.0000000000
     20438      6813  TIP3      H1            -48.2053005720       49.1289775841      -14.8914363352  W2        6813            0.0000000000
     20439      6813  TIP3      H2            -48.6131405720       47.6828775841      -15.0767763352  W2        6813            0.0000000000
     20440      6814  TIP3      OH2           -57.9027505720       44.5994475841       -3.2137363352  W2        6814            0.0000000000
     20441      6814  TIP3      H1            -57.6798905720       44.1814075841       -2.3819863352  W2        6814            0.0000000000
     20442      6814  TIP3      H2            -58.5047405720       43.9869475841       -3.6364563352  W2        6814            0.0000000000
     20443      6815  TIP3      OH2           -50.8862605720       44.1164375841       -1.0007663352  W2        6815            0.0000000000
     20444      6815  TIP3      H1            -51.1821805720       43.9507375841       -1.8958563352  W2        6815            0.0000000000
     20445      6815  TIP3      H2            -49.9547405720       43.8964675841       -1.0113763352  W2        6815            0.0000000000
     20446      6816  TIP3      OH2           -46.2659805720       49.4896375841       -3.1109663352  W2        6816            0.0000000000
     20447      6816  TIP3      H1            -47.1665505720       49.6728975841       -3.3785763352  W2        6816            0.0000000000
     20448      6816  TIP3      H2            -46.2318705720       49.7485675841       -2.1900863352  W2        6816            0.0000000000
     20449      6817  TIP3      OH2           -40.5346505720       41.7344275841      -14.7437063352  W2        6817            0.0000000000
     20450      6817  TIP3      H1            -41.0890205720       41.3382275841      -15.4159563352  W2        6817            0.0000000000
     20451      6817  TIP3      H2            -40.4342905720       42.6449475841      -15.0213763352  W2        6817            0.0000000000
     20452      6818  TIP3      OH2           -40.5714505720       47.5345975841       -1.9065563352  W2        6818            0.0000000000
     20453      6818  TIP3      H1            -41.4226005720       47.7729775841       -2.2739163352  W2        6818            0.0000000000
     20454      6818  TIP3      H2            -39.9811105720       47.5179175841       -2.6598463352  W2        6818            0.0000000000
     20455      6819  TIP3      OH2           -42.2394805720       50.5204675841      -14.2784963352  W2        6819            0.0000000000
     20456      6819  TIP3      H1            -42.6123705720       49.6948475841      -13.9694363352  W2        6819            0.0000000000
     20457      6819  TIP3      H2            -41.9621305720       50.3374075841      -15.1761563352  W2        6819            0.0000000000
     20458      6820  TIP3      OH2           -45.0790905720       45.3284175841       -7.2573063352  W2        6820            0.0000000000
     20459      6820  TIP3      H1            -46.0074005720       45.0966075841       -7.2843763352  W2        6820            0.0000000000
     20460      6820  TIP3      H2            -44.6279805720       44.5513975841       -7.5874263352  W2        6820            0.0000000000
     20461      6821  TIP3      OH2           -52.5357805720       49.6565775841      -11.1244363352  W2        6821            0.0000000000
     20462      6821  TIP3      H1            -52.0085605720       50.4300175841      -11.3245563352  W2        6821            0.0000000000
     20463      6821  TIP3      H2            -53.4159305720       49.8814975841      -11.4260363352  W2        6821            0.0000000000
     20464      6822  TIP3      OH2           -56.7810105720       44.5189875841      -16.5371963352  W2        6822            0.0000000000
     20465      6822  TIP3      H1            -56.1650205720       45.1457075841      -16.1577163352  W2        6822            0.0000000000
     20466      6822  TIP3      H2            -57.6427505720       44.8349675841      -16.2655463352  W2        6822            0.0000000000
     20467      6823  TIP3      OH2           -51.1085505720       47.3195675841      -11.5480063352  W2        6823            0.0000000000
     20468      6823  TIP3      H1            -51.3495505720       48.2450075841      -11.5064763352  W2        6823            0.0000000000
     20469      6823  TIP3      H2            -51.8491905720       46.8606975841      -11.1516163352  W2        6823            0.0000000000
     20470      6824  TIP3      OH2           -50.5938905720       51.4689275841       -5.2328963352  W2        6824            0.0000000000
     20471      6824  TIP3      H1            -50.2314205720       52.3234875841       -5.4664563352  W2        6824            0.0000000000
     20472      6824  TIP3      H2            -50.0623705720       51.1770875841       -4.4922663352  W2        6824            0.0000000000
     20473      6825  TIP3      OH2           -52.4254705720       52.3413275841      -12.0027863352  W2        6825            0.0000000000
     20474      6825  TIP3      H1            -53.3754205720       52.4470675841      -11.9514563352  W2        6825            0.0000000000
     20475      6825  TIP3      H2            -52.0736605720       53.1620675841      -11.6580363352  W2        6825            0.0000000000
     20476      6826  TIP3      OH2           -47.0498105720       47.5679975841       -5.5323363352  W2        6826            0.0000000000
     20477      6826  TIP3      H1            -47.4756805720       47.3401675841       -4.7059363352  W2        6826            0.0000000000
     20478      6826  TIP3      H2            -46.4692305720       46.8291775841       -5.7148063352  W2        6826            0.0000000000
     20479      6827  TIP3      OH2           -44.8469205720       48.4970475841      -16.4584363352  W2        6827            0.0000000000
     20480      6827  TIP3      H1            -44.4936105720       48.1170275841      -15.6540863352  W2        6827            0.0000000000
     20481      6827  TIP3      H2            -45.7955705720       48.4035275841      -16.3715063352  W2        6827            0.0000000000
     20482      6828  TIP3      OH2           -44.3913905720       52.1199475841       -3.0628563352  W2        6828            0.0000000000
     20483      6828  TIP3      H1            -44.9930705720       51.5642375841       -3.5582263352  W2        6828            0.0000000000
     20484      6828  TIP3      H2            -44.1100205720       52.7869275841       -3.6891163352  W2        6828            0.0000000000
     20485      6829  TIP3      OH2           -40.3434805720       52.9762975841      -16.2574163352  W2        6829            0.0000000000
     20486      6829  TIP3      H1            -39.5996905720       53.5623475841      -16.3972563352  W2        6829            0.0000000000
     20487      6829  TIP3      H2            -41.0376705720       53.5448775841      -15.9241763352  W2        6829            0.0000000000
     20488      6830  TIP3      OH2           -56.2688005720       39.3527175841       -3.6555963352  W2        6830            0.0000000000
     20489      6830  TIP3      H1            -57.1615705720       39.6912575841       -3.7231963352  W2        6830            0.0000000000
     20490      6830  TIP3      H2            -56.3675205720       38.4973275841       -3.2375163352  W2        6830            0.0000000000
     20491      6831  TIP3      OH2           -43.9809905720       47.1692475841      -14.2316463352  W2        6831            0.0000000000
     20492      6831  TIP3      H1            -44.2582305720       46.4411775841      -13.6755363352  W2        6831            0.0000000000
     20493      6831  TIP3      H2            -43.0536905720       47.2884475841      -14.0263863352  W2        6831            0.0000000000
     20494      6832  TIP3      OH2           -56.6176005720       51.1571575841       -5.2206563352  W2        6832            0.0000000000
     20495      6832  TIP3      H1            -56.4005705720       50.2253975841       -5.2516863352  W2        6832            0.0000000000
     20496      6832  TIP3      H2            -56.3712505720       51.4316575841       -4.3373763352  W2        6832            0.0000000000
     20497      6833  TIP3      OH2           -50.7561405720       49.6086575841      -18.0114363352  W2        6833            0.0000000000
     20498      6833  TIP3      H1            -50.5171605720       48.8604675841      -18.5585463352  W2        6833            0.0000000000
     20499      6833  TIP3      H2            -51.0250105720       49.2208275841      -17.1786563352  W2        6833            0.0000000000
     20500      6834  TIP3      OH2           -51.8190805720       49.1790375841      -15.5551763352  W2        6834            0.0000000000
     20501      6834  TIP3      H1            -51.6722805720       48.6590175841      -14.7650863352  W2        6834            0.0000000000
     20502      6834  TIP3      H2            -51.8219105720       50.0857975841      -15.2485863352  W2        6834            0.0000000000
     20503      6835  TIP3      OH2           -55.3659705720       46.4313675841      -15.0446363352  W2        6835            0.0000000000
     20504      6835  TIP3      H1            -56.0520405720       46.7836175841      -14.4776663352  W2        6835            0.0000000000
     20505      6835  TIP3      H2            -54.8431805720       47.1943275841      -15.2912063352  W2        6835            0.0000000000
     20506      6836  TIP3      OH2           -47.5344605720       39.0937475841       -4.7657363352  W2        6836            0.0000000000
     20507      6836  TIP3      H1            -46.8356705720       39.1676175841       -4.1157663352  W2        6836            0.0000000000
     20508      6836  TIP3      H2            -47.9153205720       38.2292475841       -4.6114463352  W2        6836            0.0000000000
     20509      6837  TIP3      OH2           -46.7499705720       38.7459175841      -13.6685063352  W2        6837            0.0000000000
     20510      6837  TIP3      H1            -46.5301405720       39.2174575841      -14.4719663352  W2        6837            0.0000000000
     20511      6837  TIP3      H2            -46.1915705720       39.1401775841      -12.9984463352  W2        6837            0.0000000000
     20512      6838  TIP3      OH2           -49.0813605720       50.8763975841      -14.8057563352  W2        6838            0.0000000000
     20513      6838  TIP3      H1            -49.8977505720       51.3733675841      -14.7533263352  W2        6838            0.0000000000
     20514      6838  TIP3      H2            -48.5517305720       51.3517475841      -15.4458763352  W2        6838            0.0000000000
     20515      6839  TIP3      OH2           -49.5499805720       40.4737975841      -12.8336663352  W2        6839            0.0000000000
     20516      6839  TIP3      H1            -48.7377205720       40.9781175841      -12.7874963352  W2        6839            0.0000000000
     20517      6839  TIP3      H2            -49.7946805720       40.3287675841      -11.9197063352  W2        6839            0.0000000000
     20518      6840  TIP3      OH2           -49.0143405720       41.4600675841       -3.6490063352  W2        6840            0.0000000000
     20519      6840  TIP3      H1            -48.8953105720       42.0336075841       -2.8919663352  W2        6840            0.0000000000
     20520      6840  TIP3      H2            -48.3588805720       40.7720075841       -3.5342263352  W2        6840            0.0000000000
     20521      6841  TIP3      OH2           -48.6663105720       37.5550975841      -11.8955563352  W2        6841            0.0000000000
     20522      6841  TIP3      H1            -49.0129605720       38.1721575841      -11.2511263352  W2        6841            0.0000000000
     20523      6841  TIP3      H2            -48.0076205720       38.0556675841      -12.3770063352  W2        6841            0.0000000000
     20524      6842  TIP3      OH2           -51.7430505720       51.9201175841      -14.8240663352  W2        6842            0.0000000000
     20525      6842  TIP3      H1            -51.5821805720       52.7198675841      -15.3248063352  W2        6842            0.0000000000
     20526      6842  TIP3      H2            -51.9402705720       52.2267175841      -13.9390063352  W2        6842            0.0000000000
     20527      6843  TIP3      OH2           -53.0086105720       38.6180375841      -15.2083063352  W2        6843            0.0000000000
     20528      6843  TIP3      H1            -53.0921305720       39.5063475841      -14.8616663352  W2        6843            0.0000000000
     20529      6843  TIP3      H2            -52.1185805720       38.3527075841      -14.9766263352  W2        6843            0.0000000000
     20530      6844  TIP3      OH2           -42.8097605720       39.3670975841       -2.8140363352  W2        6844            0.0000000000
     20531      6844  TIP3      H1            -43.7261805720       39.6292675841       -2.9016663352  W2        6844            0.0000000000
     20532      6844  TIP3      H2            -42.4742605720       39.3639975841       -3.7105063352  W2        6844            0.0000000000
     20533      6845  TIP3      OH2           -44.2076605720       43.1171975841       -8.7183063352  W2        6845            0.0000000000
     20534      6845  TIP3      H1            -45.0052205720       42.7022175841       -9.0468063352  W2        6845            0.0000000000
     20535      6845  TIP3      H2            -43.7625505720       42.4265675841       -8.2272563352  W2        6845            0.0000000000
     20536      6846  TIP3      OH2           -54.7500805720       49.0452575841      -16.1478563352  W2        6846            0.0000000000
     20537      6846  TIP3      H1            -54.1579305720       49.7447375841      -15.8716163352  W2        6846            0.0000000000
     20538      6846  TIP3      H2            -54.2907805720       48.6122075841      -16.8673963352  W2        6846            0.0000000000
     20539      6847  TIP3      OH2           -56.4341605720       41.7095575841      -17.0319163352  W2        6847            0.0000000000
     20540      6847  TIP3      H1            -56.4789005720       42.6488675841      -16.8532163352  W2        6847            0.0000000000
     20541      6847  TIP3      H2            -57.3218405720       41.4740475841      -17.3017063352  W2        6847            0.0000000000
     20542      6848  TIP3      OH2           -43.1212005720       52.3734475841       -7.0959563352  W2        6848            0.0000000000
     20543      6848  TIP3      H1            -43.2767705720       53.0518875841       -7.7530263352  W2        6848            0.0000000000
     20544      6848  TIP3      H2            -42.1885605720       52.4453775841       -6.8928963352  W2        6848            0.0000000000
     20545      6849  TIP3      OH2           -55.6259605720       36.4912175841       -8.3588163352  W2        6849            0.0000000000
     20546      6849  TIP3      H1            -55.8549805720       36.5504675841       -9.2863163352  W2        6849            0.0000000000
     20547      6849  TIP3      H2            -56.0686205720       35.6997675841       -8.0524063352  W2        6849            0.0000000000
     20548      6850  TIP3      OH2           -56.6956305720       50.4319275841      -12.1982363352  W2        6850            0.0000000000
     20549      6850  TIP3      H1            -57.5277705720       50.9041975841      -12.1710963352  W2        6850            0.0000000000
     20550      6850  TIP3      H2            -56.1498005720       50.9416875841      -12.7969263352  W2        6850            0.0000000000
     20551      6851  TIP3      OH2           -57.4072605720       53.0442975841       -0.8684363352  W2        6851            0.0000000000
     20552      6851  TIP3      H1            -56.8670405720       52.8276975841       -0.1085163352  W2        6851            0.0000000000
     20553      6851  TIP3      H2            -57.8884605720       52.2388975841       -1.0581863352  W2        6851            0.0000000000
     20554      6852  TIP3      OH2           -52.8099205720       51.9637375841        0.7519836648  W2        6852            0.0000000000
     20555      6852  TIP3      H1            -52.0422005720       51.5048175841        1.0929036648  W2        6852            0.0000000000
     20556      6852  TIP3      H2            -52.8313005720       51.7377175841       -0.1778963352  W2        6852            0.0000000000
     20557      6853  TIP3      OH2           -48.7179605720       51.4717975841      -17.8728363352  W2        6853            0.0000000000
     20558      6853  TIP3      H1            -49.3618605720       50.8406575841      -17.5514663352  W2        6853            0.0000000000
     20559      6853  TIP3      H2            -47.9561305720       50.9405975841      -18.1044863352  W2        6853            0.0000000000
     20560      6854  TIP3      OH2           -46.2330505720       50.3438475841       -0.5188663352  W2        6854            0.0000000000
     20561      6854  TIP3      H1            -46.5841005720       49.4871475841       -0.2758263352  W2        6854            0.0000000000
     20562      6854  TIP3      H2            -45.5067305720       50.4865175841        0.0880336648  W2        6854            0.0000000000
     20563      6855  TIP3      OH2           -44.1136705720       51.2887875841      -17.6390363352  W2        6855            0.0000000000
     20564      6855  TIP3      H1            -43.8306305720       50.4943075841      -17.1863463352  W2        6855            0.0000000000
     20565      6855  TIP3      H2            -43.3738805720       51.5218875841      -18.1999263352  W2        6855            0.0000000000
     20566      6856  TIP3      OH2           -57.5003105720       46.8547075841        0.0859936648  W2        6856            0.0000000000
     20567      6856  TIP3      H1            -57.3562605720       45.9527775841       -0.2003363352  W2        6856            0.0000000000
     20568      6856  TIP3      H2            -58.2725705720       47.1409175841       -0.4017763352  W2        6856            0.0000000000
     20569      6857  TIP3      OH2           -53.1589405720       47.1982775841      -17.7815463352  W2        6857            0.0000000000
     20570      6857  TIP3      H1            -53.0945305720       46.4042375841      -17.2509063352  W2        6857            0.0000000000
     20571      6857  TIP3      H2            -52.5060205720       47.0795575841      -18.4713463352  W2        6857            0.0000000000
     20572      6858  TIP3      OH2           -50.8447005720       46.8245175841       -0.4813663352  W2        6858            0.0000000000
     20573      6858  TIP3      H1            -51.1733205720       47.0953275841       -1.3386263352  W2        6858            0.0000000000
     20574      6858  TIP3      H2            -50.6928805720       45.8834975841       -0.5688663352  W2        6858            0.0000000000
     20575      6859  TIP3      OH2           -47.8066005720       48.2454475841      -18.0457463352  W2        6859            0.0000000000
     20576      6859  TIP3      H1            -48.0751905720       48.4256575841      -17.1448563352  W2        6859            0.0000000000
     20577      6859  TIP3      H2            -48.0130405720       47.3200675841      -18.1771663352  W2        6859            0.0000000000
     20578      6860  TIP3      OH2           -45.1101805720       46.7402475841       -3.0981363352  W2        6860            0.0000000000
     20579      6860  TIP3      H1            -44.3647005720       47.3286175841       -3.2177363352  W2        6860            0.0000000000
     20580      6860  TIP3      H2            -45.8675005720       47.3222175841       -3.0348263352  W2        6860            0.0000000000
     20581      6861  TIP3      OH2           -56.6676605720       44.0550375841       -0.4940763352  W2        6861            0.0000000000
     20582      6861  TIP3      H1            -56.2595405720       43.1976975841       -0.6150163352  W2        6861            0.0000000000
     20583      6861  TIP3      H2            -56.9279005720       44.0691675841        0.4269536648  W2        6861            0.0000000000
     20584      6862  TIP3      OH2           -52.0095605720       45.1708975841      -15.4757463352  W2        6862            0.0000000000
     20585      6862  TIP3      H1            -52.4693605720       44.6867275841      -14.7898963352  W2        6862            0.0000000000
     20586      6862  TIP3      H2            -51.7546905720       44.5024375841      -16.1116963352  W2        6862            0.0000000000
     20587      6863  TIP3      OH2           -52.7206305720       43.0636075841       -3.1197863352  W2        6863            0.0000000000
     20588      6863  TIP3      H1            -53.3390205720       43.7382675841       -2.8393163352  W2        6863            0.0000000000
     20589      6863  TIP3      H2            -52.3765105720       43.3849975841       -3.9531663352  W2        6863            0.0000000000
     20590      6864  TIP3      OH2           -50.9385205720       43.4140775841      -17.2134263352  W2        6864            0.0000000000
     20591      6864  TIP3      H1            -51.1190205720       43.2591975841      -18.1405963352  W2        6864            0.0000000000
     20592      6864  TIP3      H2            -49.9884705720       43.5219475841      -17.1686363352  W2        6864            0.0000000000
     20593      6865  TIP3      OH2           -47.7008105720       45.5351375841        0.1576936648  W2        6865            0.0000000000
     20594      6865  TIP3      H1            -46.7476905720       45.6190475841        0.1302936648  W2        6865            0.0000000000
     20595      6865  TIP3      H2            -47.8613505720       44.8233175841        0.7771836648  W2        6865            0.0000000000
     20596      6866  TIP3      OH2           -41.5486905720       45.7684975841      -17.7676163352  W2        6866            0.0000000000
     20597      6866  TIP3      H1            -41.8222105720       45.3440475841      -18.5807863352  W2        6866            0.0000000000
     20598      6866  TIP3      H2            -41.5092805720       46.6999475841      -17.9845763352  W2        6866            0.0000000000
     20599      6867  TIP3      OH2           -52.3812605720       40.4186875841       -2.0374763352  W2        6867            0.0000000000
     20600      6867  TIP3      H1            -52.2311705720       39.6898175841       -2.6395063352  W2        6867            0.0000000000
     20601      6867  TIP3      H2            -52.3790205720       41.1958575841       -2.5962563352  W2        6867            0.0000000000
     20602      6868  TIP3      OH2           -51.9686905720       38.7882675841       -4.5447363352  W2        6868            0.0000000000
     20603      6868  TIP3      H1            -51.4329405720       39.2399375841       -5.1968063352  W2        6868            0.0000000000
     20604      6868  TIP3      H2            -52.8207305720       38.6802475841       -4.9673263352  W2        6868            0.0000000000
     20605      6869  TIP3      OH2           -50.3868505720       44.2278875841       -4.3052163352  W2        6869            0.0000000000
     20606      6869  TIP3      H1            -49.6363705720       44.0716375841       -4.8784363352  W2        6869            0.0000000000
     20607      6869  TIP3      H2            -50.7260205720       45.0795475841       -4.5806663352  W2        6869            0.0000000000
     20608      6870  TIP3      OH2           -45.9712305720       42.0430675841        0.7233136648  W2        6870            0.0000000000
     20609      6870  TIP3      H1            -45.7791005720       41.1120075841        0.6117636648  W2        6870            0.0000000000
     20610      6870  TIP3      H2            -45.1136005720       42.4680175841        0.7128536648  W2        6870            0.0000000000
     20611      6871  TIP3      OH2           -44.6545105720       44.8315875841       -1.1994163352  W2        6871            0.0000000000
     20612      6871  TIP3      H1            -44.9360105720       45.5410475841       -1.7770363352  W2        6871            0.0000000000
     20613      6871  TIP3      H2            -43.7120805720       44.7588875841       -1.3502963352  W2        6871            0.0000000000
     20614      6872  TIP3      OH2           -53.9026305720       41.6170375841       -0.1259163352  W2        6872            0.0000000000
     20615      6872  TIP3      H1            -54.6697305720       41.0845175841       -0.3361563352  W2        6872            0.0000000000
     20616      6872  TIP3      H2            -53.2237305720       41.3070775841       -0.7252863352  W2        6872            0.0000000000
     20617      6873  TIP3      OH2           -51.1631405720       36.2448375841       -4.1133763352  W2        6873            0.0000000000
     20618      6873  TIP3      H1            -51.2611805720       37.1911575841       -4.2187563352  W2        6873            0.0000000000
     20619      6873  TIP3      H2            -51.9055205720       35.8722175841       -4.5890263352  W2        6873            0.0000000000
     20620      6874  TIP3      OH2           -49.8990905720       40.5663775841       -0.5495363352  W2        6874            0.0000000000
     20621      6874  TIP3      H1            -50.1345505720       40.3470475841        0.3519536648  W2        6874            0.0000000000
     20622      6874  TIP3      H2            -50.6824005720       40.3594975841       -1.0592863352  W2        6874            0.0000000000
     20623      6875  TIP3      OH2           -47.1834305720       39.6937275841       -1.4741863352  W2        6875            0.0000000000
     20624      6875  TIP3      H1            -48.1308905720       39.7256975841       -1.3418563352  W2        6875            0.0000000000
     20625      6875  TIP3      H2            -46.8707605720       39.0684375841       -0.8203663352  W2        6875            0.0000000000
     20626      6876  TIP3      OH2           -45.5492805720       38.3278375841        0.5310036648  W2        6876            0.0000000000
     20627      6876  TIP3      H1            -45.6461005720       37.3755675841        0.5251936648  W2        6876            0.0000000000
     20628      6876  TIP3      H2            -45.8709705720       38.5965175841        1.3915536648  W2        6876            0.0000000000
     20629      6877  TIP3      OH2           -55.7223505720       39.5374175841       -0.4214463352  W2        6877            0.0000000000
     20630      6877  TIP3      H1            -55.5106105720       38.8310275841       -1.0316963352  W2        6877            0.0000000000
     20631      6877  TIP3      H2            -55.8336005720       39.1000175841        0.4226736648  W2        6877            0.0000000000
     20632      6878  TIP3      OH2           -50.9413305720       35.5385775841       -1.4420963352  W2        6878            0.0000000000
     20633      6878  TIP3      H1            -50.2294905720       34.8987975841       -1.4561863352  W2        6878            0.0000000000
     20634      6878  TIP3      H2            -51.0422905720       35.8054075841       -2.3557863352  W2        6878            0.0000000000
     20635      6879  TIP3      OH2           -50.5875805720       37.2214175841        0.6115336648  W2        6879            0.0000000000
     20636      6879  TIP3      H1            -50.7193605720       36.7457975841       -0.2086163352  W2        6879            0.0000000000
     20637      6879  TIP3      H2            -51.1868405720       37.9657775841        0.5562436648  W2        6879            0.0000000000
     20638      6880  TIP3      OH2           -51.0413505720       54.1044475841      -16.2120663352  W2        6880            0.0000000000
     20639      6880  TIP3      H1            -50.1082805720       54.2623175841      -16.0682263352  W2        6880            0.0000000000
     20640      6880  TIP3      H2            -51.3054705720       54.7797475841      -16.8369163352  W2        6880            0.0000000000
     20641      6881  TIP3      OH2           -57.4728605720       48.7408275841      -16.7292563352  W2        6881            0.0000000000
     20642      6881  TIP3      H1            -56.5589405720       48.8197175841      -16.4558663352  W2        6881            0.0000000000
     20643      6881  TIP3      H2            -57.4655505720       48.0537875841      -17.3956963352  W2        6881            0.0000000000
     20644      6882  TIP3      OH2           -58.8238005720       54.1336775841      -11.6518663352  W2        6882            0.0000000000
     20645      6882  TIP3      H1            -59.4710905720       53.6718475841      -12.1847463352  W2        6882            0.0000000000
     20646      6882  TIP3      H2            -58.4693405720       53.4620075841      -11.0692463352  W2        6882            0.0000000000
     20647      6883  TIP3      OH2           -57.9538805720       52.2143775841       -9.8472463352  W2        6883            0.0000000000
     20648      6883  TIP3      H1            -58.2882005720       51.3341075841       -9.6752263352  W2        6883            0.0000000000
     20649      6883  TIP3      H2            -57.7316405720       52.5598775841       -8.9826863352  W2        6883            0.0000000000
     20650      6884  TIP3      OH2           -40.4054005720       53.0240175841       -6.8667663352  W2        6884            0.0000000000
     20651      6884  TIP3      H1            -40.4267305720       53.2088575841       -5.9278263352  W2        6884            0.0000000000
     20652      6884  TIP3      H2            -39.7147805720       53.5924175841       -7.2076263352  W2        6884            0.0000000000
     20653      6885  TIP3      OH2           -40.8421105720       52.5911275841       -3.9448563352  W2        6885            0.0000000000
     20654      6885  TIP3      H1            -41.3292405720       51.8555375841       -4.3161163352  W2        6885            0.0000000000
     20655      6885  TIP3      H2            -40.2928405720       52.1975175841       -3.2669163352  W2        6885            0.0000000000
     20656      6886  TIP3      OH2           -42.3913805720       48.3809375841        0.6931736648  W2        6886            0.0000000000
     20657      6886  TIP3      H1            -43.2572705720       48.2759075841        1.0874036648  W2        6886            0.0000000000
     20658      6886  TIP3      H2            -42.0147905720       49.1392675841        1.1396436648  W2        6886            0.0000000000
     20659      6887  TIP3      OH2           -41.0904105720       46.6373075841      -13.7925763352  W2        6887            0.0000000000
     20660      6887  TIP3      H1            -40.2402705720       47.0583975841      -13.6654163352  W2        6887            0.0000000000
     20661      6887  TIP3      H2            -41.0849005720       45.8973175841      -13.1854363352  W2        6887            0.0000000000
     20662      6888  TIP3      OH2           -40.6958505720       44.6910475841      -11.9690063352  W2        6888            0.0000000000
     20663      6888  TIP3      H1            -41.4223905720       44.2113075841      -11.5712463352  W2        6888            0.0000000000
     20664      6888  TIP3      H2            -40.1145205720       44.8965175841      -11.2368463352  W2        6888            0.0000000000
     20665      6889  TIP3      OH2           -40.9367305720       47.4757975841       -7.0212463352  W2        6889            0.0000000000
     20666      6889  TIP3      H1            -40.1033105720       47.0977975841       -7.3018863352  W2        6889            0.0000000000
     20667      6889  TIP3      H2            -40.8247005720       48.4189175841       -7.1403363352  W2        6889            0.0000000000
     20668      6890  TIP3      OH2           -42.4505005720       50.3535475841       -4.7144063352  W2        6890            0.0000000000
     20669      6890  TIP3      H1            -43.0979705720       50.6786975841       -4.0888863352  W2        6890            0.0000000000
     20670      6890  TIP3      H2            -42.9681005720       49.9133175841       -5.3885763352  W2        6890            0.0000000000
     20671      6891  TIP3      OH2           -40.4275405720       44.5918975841      -15.5778763352  W2        6891            0.0000000000
     20672      6891  TIP3      H1            -40.9494305720       44.9483075841      -16.2967863352  W2        6891            0.0000000000
     20673      6891  TIP3      H2            -40.4606205720       45.2666775841      -14.8997863352  W2        6891            0.0000000000
     20674      6892  TIP3      OH2           -42.0786405720       41.8314575841      -17.0271663352  W2        6892            0.0000000000
     20675      6892  TIP3      H1            -41.9822005720       42.4981575841      -17.7071963352  W2        6892            0.0000000000
     20676      6892  TIP3      H2            -42.2186805720       41.0160875841      -17.5086163352  W2        6892            0.0000000000
     20677      6893  TIP3      OH2           -42.9091705720       43.2116975841      -11.4061363352  W2        6893            0.0000000000
     20678      6893  TIP3      H1            -43.0592905720       42.2665575841      -11.4263563352  W2        6893            0.0000000000
     20679      6893  TIP3      H2            -43.2627205720       43.4928375841      -10.5622263352  W2        6893            0.0000000000
     20680      6894  TIP3      OH2           -57.8739305720       45.2899175841       -7.3957563352  W2        6894            0.0000000000
     20681      6894  TIP3      H1            -57.6896405720       45.2080875841       -8.3314663352  W2        6894            0.0000000000
     20682      6894  TIP3      H2            -57.0246405720       45.1656175841       -6.9721163352  W2        6894            0.0000000000
     20683      6895  TIP3      OH2           -42.0528805720       45.1820275841       -1.7673063352  W2        6895            0.0000000000
     20684      6895  TIP3      H1            -41.4701505720       44.4472575841       -1.5755863352  W2        6895            0.0000000000
     20685      6895  TIP3      H2            -41.4889505720       45.9540575841       -1.7207263352  W2        6895            0.0000000000
     20686      6896  TIP3      OH2           -40.5561705720       43.0846075841       -1.0827663352  W2        6896            0.0000000000
     20687      6896  TIP3      H1            -41.4195005720       42.7058175841       -1.2482963352  W2        6896            0.0000000000
     20688      6896  TIP3      H2            -39.9518005720       42.3460875841       -1.1571863352  W2        6896            0.0000000000
     20689      6897  TIP3      OH2           -42.8312605720       39.2394375841      -17.9096163352  W2        6897            0.0000000000
     20690      6897  TIP3      H1            -42.2206805720       38.8681175841      -17.2727963352  W2        6897            0.0000000000
     20691      6897  TIP3      H2            -43.6681105720       38.8181275841      -17.7136163352  W2        6897            0.0000000000
     20692      6898  TIP3      OH2           -43.1986905720       40.7942775841      -12.9436263352  W2        6898            0.0000000000
     20693      6898  TIP3      H1            -42.9189805720       39.8873175841      -12.8194563352  W2        6898            0.0000000000
     20694      6898  TIP3      H2            -42.4395205720       41.2284275841      -13.3327063352  W2        6898            0.0000000000
     20695      6899  TIP3      OH2           -42.5868605720       41.3760175841       -7.5077363352  W2        6899            0.0000000000
     20696      6899  TIP3      H1            -41.6540605720       41.5880075841       -7.5421363352  W2        6899            0.0000000000
     20697      6899  TIP3      H2            -42.8221105720       41.4772275841       -6.5854363352  W2        6899            0.0000000000
     20698      6900  TIP3      OH2           -42.5576705720       42.1125475841       -4.7317963352  W2        6900            0.0000000000
     20699      6900  TIP3      H1            -43.4005405720       42.3805875841       -4.3658163352  W2        6900            0.0000000000
     20700      6900  TIP3      H2            -42.1152405720       42.9347375841       -4.9426863352  W2        6900            0.0000000000
     20701      6901  TIP3      OH2           -58.2764505720       40.5604175841       -1.2548763352  W2        6901            0.0000000000
     20702      6901  TIP3      H1            -57.3569605720       40.4382475841       -1.0185663352  W2        6901            0.0000000000
     20703      6901  TIP3      H2            -58.7260005720       39.8103875841       -0.8655263352  W2        6901            0.0000000000
     20704      6902  TIP3      OH2           -40.2745105720       36.0925675841        0.6217036648  W2        6902            0.0000000000
     20705      6902  TIP3      H1            -39.9248105720       35.4389175841        0.0161736648  W2        6902            0.0000000000
     20706      6902  TIP3      H2            -40.1275605720       36.9299775841        0.1819636648  W2        6902            0.0000000000
     20707      6903  TIP3      OH2           -42.5852105720       38.0572075841      -12.8954263352  W2        6903            0.0000000000
     20708      6903  TIP3      H1            -42.4027105720       37.6083575841      -12.0699263352  W2        6903            0.0000000000
     20709      6903  TIP3      H2            -43.1849205720       37.4726475841      -13.3589663352  W2        6903            0.0000000000
     20710      6904  TIP3      OH2           -57.0552005720       38.8725775841       -8.3635863352  W2        6904            0.0000000000
     20711      6904  TIP3      H1            -56.6100405720       38.0808275841       -8.0616163352  W2        6904            0.0000000000
     20712      6904  TIP3      H2            -56.5889005720       39.5890975841       -7.9330263352  W2        6904            0.0000000000
     20713      6905  TIP3      OH2           -58.7511705720       41.8718775841       -7.2945663352  W2        6905            0.0000000000
     20714      6905  TIP3      H1            -58.2591905720       41.6509275841       -8.0853663352  W2        6905            0.0000000000
     20715      6905  TIP3      H2            -58.3890805720       42.7122175841       -7.0136163352  W2        6905            0.0000000000
     20716      6906  TIP3      OH2           -40.7547905720       38.2020275841       -1.0291663352  W2        6906            0.0000000000
     20717      6906  TIP3      H1            -41.6722205720       38.4727375841       -1.0648163352  W2        6906            0.0000000000
     20718      6906  TIP3      H2            -40.6318505720       37.6668675841       -1.8131963352  W2        6906            0.0000000000
     20719      6907  TIP3      OH2           -40.7185905720       38.1250175841      -16.3673963352  W2        6907            0.0000000000
     20720      6907  TIP3      H1            -40.3063305720       37.4035875841      -16.8425963352  W2        6907            0.0000000000
     20721      6907  TIP3      H2            -40.0369405720       38.7944775841      -16.3089663352  W2        6907            0.0000000000
     20722      6908  TIP3      OH2           -58.4375205720       38.1297875841      -13.2403263352  W2        6908            0.0000000000
     20723      6908  TIP3      H1            -59.3626805720       38.3384475841      -13.3697763352  W2        6908            0.0000000000
     20724      6908  TIP3      H2            -57.9835305720       38.6138675841      -13.9300963352  W2        6908            0.0000000000
     20725      6909  TIP3      OH2           -43.6668005720       53.1139575841      -11.2945863352  W2        6909            0.0000000000
     20726      6909  TIP3      H1            -43.0145105720       52.7661675841      -11.9026763352  W2        6909            0.0000000000
     20727      6909  TIP3      H2            -43.1564205720       53.6022775841      -10.6486163352  W2        6909            0.0000000000
     20728      6910  TIP3      OH2           -58.4739805720       36.8676875841       -4.8960763352  W2        6910            0.0000000000
     20729      6910  TIP3      H1            -59.1389305720       36.6217175841       -4.2529863352  W2        6910            0.0000000000
     20730      6910  TIP3      H2            -58.9168505720       37.4897275841       -5.4732763352  W2        6910            0.0000000000
     20731      6911  TIP3      OH2           -56.2820505720       50.0430975841       -0.7514963352  W2        6911            0.0000000000
     20732      6911  TIP3      H1            -57.1028005720       50.2177475841       -1.2120263352  W2        6911            0.0000000000
     20733      6911  TIP3      H2            -56.5342705720       49.9695675841        0.1689436648  W2        6911            0.0000000000
     20734      6912  TIP3      OH2           -53.3277605720       51.0172175841       -4.4930963352  W2        6912            0.0000000000
     20735      6912  TIP3      H1            -53.7526505720       51.8270675841       -4.7756363352  W2        6912            0.0000000000
     20736      6912  TIP3      H2            -52.4234805720       51.1026275841       -4.7951163352  W2        6912            0.0000000000
     20737      6913  TIP3      OH2           -49.0166205720       52.4162175841       -1.5337263352  W2        6913            0.0000000000
     20738      6913  TIP3      H1            -48.8318705720       52.0828275841       -0.6556963352  W2        6913            0.0000000000
     20739      6913  TIP3      H2            -48.1701705720       52.7260775841       -1.8558063352  W2        6913            0.0000000000
     20740      6914  TIP3      OH2           -46.6715805720       53.7021075841       -2.2895863352  W2        6914            0.0000000000
     20741      6914  TIP3      H1            -45.9946905720       53.0693375841       -2.5296663352  W2        6914            0.0000000000
     20742      6914  TIP3      H2            -46.3497005720       54.1031575841       -1.4822563352  W2        6914            0.0000000000
     20743      6915  TIP3      OH2           -41.7542005720       36.2916575841       -3.2100863352  W2        6915            0.0000000000
     20744      6915  TIP3      H1            -42.5668505720       36.6166875841       -3.5976163352  W2        6915            0.0000000000
     20745      6915  TIP3      H2            -41.5213505720       35.5315075841       -3.7431763352  W2        6915            0.0000000000
     20746      6916  TIP3      OH2           -55.9260905720       54.2736075841       -4.4455663352  W2        6916            0.0000000000
     20747      6916  TIP3      H1            -56.6464505720       54.7137075841       -4.8967963352  W2        6916            0.0000000000
     20748      6916  TIP3      H2            -56.2916905720       54.0230775841       -3.5971663352  W2        6916            0.0000000000
     20749      6917  TIP3      OH2           -53.4588305720       53.8739975841       -5.4158463352  W2        6917            0.0000000000
     20750      6917  TIP3      H1            -54.3236105720       53.9458475841       -5.0118363352  W2        6917            0.0000000000
     20751      6917  TIP3      H2            -53.5139305720       54.4207275841       -6.1995963352  W2        6917            0.0000000000
     20752      6918  TIP3      OH2           -48.7482705720       53.7618875841       -6.2402463352  W2        6918            0.0000000000
     20753      6918  TIP3      H1            -49.2048705720       54.2908575841       -6.8944063352  W2        6918            0.0000000000
     20754      6918  TIP3      H2            -48.5854705720       54.3650275841       -5.5150163352  W2        6918            0.0000000000
     20755      6919  TIP3      OH2           -46.4206405720       52.6398475841       -5.2952163352  W2        6919            0.0000000000
     20756      6919  TIP3      H1            -47.3252705720       52.8048675841       -5.5610063352  W2        6919            0.0000000000
     20757      6919  TIP3      H2            -45.9917805720       53.4930675841       -5.3608763352  W2        6919            0.0000000000
     20758      6920  TIP3      OH2           -43.8164505720       54.2097575841       -5.0004363352  W2        6920            0.0000000000
     20759      6920  TIP3      H1            -43.9982505720       55.1256475841       -5.2109463352  W2        6920            0.0000000000
     20760      6920  TIP3      H2            -43.6396705720       53.7994675841       -5.8469763352  W2        6920            0.0000000000
     20761      6921  TIP3      OH2           -56.5112805720       52.8968575841       -7.5353863352  W2        6921            0.0000000000
     20762      6921  TIP3      H1            -56.5296805720       52.4713675841       -6.6781563352  W2        6921            0.0000000000
     20763      6921  TIP3      H2            -55.7064905720       52.5783575841       -7.9441663352  W2        6921            0.0000000000
     20764      6922  TIP3      OH2           -54.3699705720       51.6067275841       -8.8803963352  W2        6922            0.0000000000
     20765      6922  TIP3      H1            -54.5889005720       50.6904675841       -8.7107963352  W2        6922            0.0000000000
     20766      6922  TIP3      H2            -53.5457505720       51.7467675841       -8.4142563352  W2        6922            0.0000000000
     20767      6923  TIP3      OH2           -51.8327205720       52.0766575841       -8.0315963352  W2        6923            0.0000000000
     20768      6923  TIP3      H1            -51.6201505720       51.1885575841       -8.3185063352  W2        6923            0.0000000000
     20769      6923  TIP3      H2            -51.7682105720       52.0424275841       -7.0771963352  W2        6923            0.0000000000
     20770      6924  TIP3      OH2           -48.3243505720       37.7407175841       -8.8872663352  W2        6924            0.0000000000
     20771      6924  TIP3      H1            -48.9986705720       37.1112775841       -8.6316863352  W2        6924            0.0000000000
     20772      6924  TIP3      H2            -47.7604305720       37.2566075841       -9.4904763352  W2        6924            0.0000000000
     20773      6925  TIP3      OH2           -43.1816305720       35.8481175841       -8.7745563352  W2        6925            0.0000000000
     20774      6925  TIP3      H1            -42.5778705720       36.3956575841       -9.2764563352  W2        6925            0.0000000000
     20775      6925  TIP3      H2            -44.0514305720       36.1671575841       -9.0151463352  W2        6925            0.0000000000
     20776      6926  TIP3      OH2           -41.4545905720       36.9869875841      -10.4414663352  W2        6926            0.0000000000
     20777      6926  TIP3      H1            -40.8428405720       36.4725575841      -10.9681063352  W2        6926            0.0000000000
     20778      6926  TIP3      H2            -41.0722505720       37.8641975841      -10.4180263352  W2        6926            0.0000000000
     20779      6927  TIP3      OH2           -55.9976005720       36.3747475841      -11.0652763352  W2        6927            0.0000000000
     20780      6927  TIP3      H1            -56.7746205720       36.1402375841      -11.5726863352  W2        6927            0.0000000000
     20781      6927  TIP3      H2            -55.4672405720       35.5779575841      -11.0564763352  W2        6927            0.0000000000
     20782      6928  TIP3      OH2           -57.1612605720       36.1725575841      -15.2616663352  W2        6928            0.0000000000
     20783      6928  TIP3      H1            -56.7221905720       36.7836075841      -15.8533163352  W2        6928            0.0000000000
     20784      6928  TIP3      H2            -57.7950205720       36.7109675841      -14.7876663352  W2        6928            0.0000000000
     20785      6929  TIP3      OH2           -51.4183405720       36.3014575841      -11.2519663352  W2        6929            0.0000000000
     20786      6929  TIP3      H1            -50.5440005720       36.6898875841      -11.2815363352  W2        6929            0.0000000000
     20787      6929  TIP3      H2            -51.5542605720       36.0862375841      -10.3292463352  W2        6929            0.0000000000
     20788      6930  TIP3      OH2           -45.8615005720       36.3314375841       -9.6027963352  W2        6930            0.0000000000
     20789      6930  TIP3      H1            -45.7853405720       36.4265975841      -10.5521963352  W2        6930            0.0000000000
     20790      6930  TIP3      H2            -46.1365805720       35.4237275841       -9.4738863352  W2        6930            0.0000000000
     20791      6931  TIP3      OH2           -44.5082405720       36.3572175841      -13.9102963352  W2        6931            0.0000000000
     20792      6931  TIP3      H1            -45.2111305720       36.9721375841      -14.1201563352  W2        6931            0.0000000000
     20793      6931  TIP3      H2            -44.9531005720       35.5198875841      -13.7792063352  W2        6931            0.0000000000
     20794      6932  TIP3      OH2           -57.2603105720       52.1207775841      -14.3641563352  W2        6932            0.0000000000
     20795      6932  TIP3      H1            -57.9453205720       52.0826675841      -15.0316463352  W2        6932            0.0000000000
     20796      6932  TIP3      H2            -57.2565905720       53.0335375841      -14.0759463352  W2        6932            0.0000000000
     20797      6933  TIP3      OH2           -55.3003505720       38.0887075841      -16.8192563352  W2        6933            0.0000000000
     20798      6933  TIP3      H1            -54.8090105720       37.4589475841      -17.3467063352  W2        6933            0.0000000000
     20799      6933  TIP3      H2            -54.6767205720       38.3846475841      -16.1561363352  W2        6933            0.0000000000
     20800      6934  TIP3      OH2           -50.2743405720       38.3818575841      -14.3622063352  W2        6934            0.0000000000
     20801      6934  TIP3      H1            -50.0962105720       37.7351775841      -13.6793463352  W2        6934            0.0000000000
     20802      6934  TIP3      H2            -50.3277205720       39.2156275841      -13.8950963352  W2        6934            0.0000000000
     20803      6935  TIP3      OH2           -48.3959605720       53.3302675841      -15.9665363352  W2        6935            0.0000000000
     20804      6935  TIP3      H1            -47.5299405720       53.6970075841      -16.1447163352  W2        6935            0.0000000000
     20805      6935  TIP3      H2            -48.6426805720       52.8910675841      -16.7804563352  W2        6935            0.0000000000
     20806      6936  TIP3      OH2           -41.6870005720       52.8932975841      -13.2874263352  W2        6936            0.0000000000
     20807      6936  TIP3      H1            -41.8812905720       52.1455075841      -13.8524663352  W2        6936            0.0000000000
     20808      6936  TIP3      H2            -41.7259905720       53.6513075841      -13.8706363352  W2        6936            0.0000000000
     20809      6937  TIP3      OH2           -56.0398005720       36.8889375841       -1.5476563352  W2        6937            0.0000000000
     20810      6937  TIP3      H1            -56.4059805720       36.1231975841       -1.1051863352  W2        6937            0.0000000000
     20811      6937  TIP3      H2            -55.1269505720       36.9179575841       -1.2611463352  W2        6937            0.0000000000
     20812      6938  TIP3      OH2           -54.0667205720       36.2393775841       -0.0119463352  W2        6938            0.0000000000
     20813      6938  TIP3      H1            -53.1683605720       35.9653975841       -0.1966063352  W2        6938            0.0000000000
     20814      6938  TIP3      H2            -54.4534105720       35.4969775841        0.4523136648  W2        6938            0.0000000000
     20815      6939  TIP3      OH2           -55.4421905720       53.0408575841      -17.3389463352  W2        6939            0.0000000000
     20816      6939  TIP3      H1            -55.7097305720       53.3271475841      -16.4656363352  W2        6939            0.0000000000
     20817      6939  TIP3      H2            -54.6709305720       52.4947775841      -17.1866963352  W2        6939            0.0000000000
     20818      6940  TIP3      OH2           -45.6454905720       35.5719075841        0.1703336648  W2        6940            0.0000000000
     20819      6940  TIP3      H1            -45.5687705720       35.1459775841        1.0241036648  W2        6940            0.0000000000
     20820      6940  TIP3      H2            -44.7518305720       35.5853775841       -0.1723163352  W2        6940            0.0000000000
     20821      6941  TIP3      OH2           -42.4693805720       51.6445375841       -1.1372463352  W2        6941            0.0000000000
     20822      6941  TIP3      H1            -43.2511905720       51.4583375841       -1.6571863352  W2        6941            0.0000000000
     20823      6941  TIP3      H2            -42.5413905720       52.5739675841       -0.9199963352  W2        6941            0.0000000000
     20824      6942  TIP3      OH2           -28.0633405720       45.5309775841      -11.1065263352  W2        6942            0.0000000000
     20825      6942  TIP3      H1            -27.9742305720       46.4747975841      -11.2388163352  W2        6942            0.0000000000
     20826      6942  TIP3      H2            -28.7015805720       45.2556175841      -11.7645863352  W2        6942            0.0000000000
     20827      6943  TIP3      OH2           -29.1302105720       44.7860475841       -7.6877063352  W2        6943            0.0000000000
     20828      6943  TIP3      H1            -29.1684605720       44.1396775841       -6.9827463352  W2        6943            0.0000000000
     20829      6943  TIP3      H2            -29.4525605720       44.3194875841       -8.4588363352  W2        6943            0.0000000000
     20830      6944  TIP3      OH2           -36.7617105720       44.4002575841       -6.0947163352  W2        6944            0.0000000000
     20831      6944  TIP3      H1            -36.7205005720       43.7745875841       -5.3714763352  W2        6944            0.0000000000
     20832      6944  TIP3      H2            -36.0589405720       45.0241175841       -5.9126763352  W2        6944            0.0000000000
     20833      6945  TIP3      OH2           -25.4241905720       47.7250875841       -9.3861963352  W2        6945            0.0000000000
     20834      6945  TIP3      H1            -25.8649205720       47.0046875841       -8.9356363352  W2        6945            0.0000000000
     20835      6945  TIP3      H2            -25.4372205720       48.4458075841       -8.7564263352  W2        6945            0.0000000000
     20836      6946  TIP3      OH2           -35.8384005720       48.8501475841       -7.5598063352  W2        6946            0.0000000000
     20837      6946  TIP3      H1            -36.2078805720       48.0481975841       -7.9293763352  W2        6946            0.0000000000
     20838      6946  TIP3      H2            -34.8972905720       48.6816375841       -7.5134663352  W2        6946            0.0000000000
     20839      6947  TIP3      OH2           -39.2283505720       42.5104075841      -12.1669263352  W2        6947            0.0000000000
     20840      6947  TIP3      H1            -39.6760105720       43.3562775841      -12.1852763352  W2        6947            0.0000000000
     20841      6947  TIP3      H2            -39.7892305720       41.9308275841      -12.6824163352  W2        6947            0.0000000000
     20842      6948  TIP3      OH2           -38.5177405720       44.6723675841      -10.0411263352  W2        6948            0.0000000000
     20843      6948  TIP3      H1            -38.3043905720       43.9025275841       -9.5138263352  W2        6948            0.0000000000
     20844      6948  TIP3      H2            -37.7799805720       44.7620375841      -10.6443663352  W2        6948            0.0000000000
     20845      6949  TIP3      OH2           -28.3126405720       52.8292575841       -9.1741563352  W2        6949            0.0000000000
     20846      6949  TIP3      H1            -27.6930005720       52.1527275841       -9.4472363352  W2        6949            0.0000000000
     20847      6949  TIP3      H2            -28.5209005720       52.6113375841       -8.2656663352  W2        6949            0.0000000000
     20848      6950  TIP3      OH2           -30.7407705720       47.2181875841       -7.2816063352  W2        6950            0.0000000000
     20849      6950  TIP3      H1            -30.4369805720       46.5323275841       -7.8761963352  W2        6950            0.0000000000
     20850      6950  TIP3      H2            -30.0193705720       47.3370575841       -6.6638063352  W2        6950            0.0000000000
     20851      6951  TIP3      OH2           -22.0777905720       38.8197175841       -6.4209863352  W2        6951            0.0000000000
     20852      6951  TIP3      H1            -22.0285705720       39.4298375841       -5.6850763352  W2        6951            0.0000000000
     20853      6951  TIP3      H2            -21.6522805720       39.2808075841       -7.1438763352  W2        6951            0.0000000000
     20854      6952  TIP3      OH2           -27.6000705720       41.6124275841       -6.9541263352  W2        6952            0.0000000000
     20855      6952  TIP3      H1            -27.4574805720       40.6661275841       -6.9339663352  W2        6952            0.0000000000
     20856      6952  TIP3      H2            -27.7061705720       41.8194075841       -7.8826363352  W2        6952            0.0000000000
     20857      6953  TIP3      OH2           -34.4452405720       39.7140675841       -9.6816463352  W2        6953            0.0000000000
     20858      6953  TIP3      H1            -34.4021305720       40.5739175841      -10.1000163352  W2        6953            0.0000000000
     20859      6953  TIP3      H2            -34.9028305720       39.1615375841      -10.3153263352  W2        6953            0.0000000000
     20860      6954  TIP3      OH2           -26.7229705720       39.8446275841      -11.2808163352  W2        6954            0.0000000000
     20861      6954  TIP3      H1            -26.0765405720       39.5159475841      -10.6560563352  W2        6954            0.0000000000
     20862      6954  TIP3      H2            -26.2130305720       40.3625275841      -11.9036763352  W2        6954            0.0000000000
     20863      6955  TIP3      OH2           -37.8250905720       42.1106475841       -8.9195063352  W2        6955            0.0000000000
     20864      6955  TIP3      H1            -37.1714305720       41.5608175841       -8.4874963352  W2        6955            0.0000000000
     20865      6955  TIP3      H2            -37.8011605720       41.8365475841       -9.8363063352  W2        6955            0.0000000000
     20866      6956  TIP3      OH2           -32.6686405720       43.6607775841       -9.7043563352  W2        6956            0.0000000000
     20867      6956  TIP3      H1            -32.0525405720       43.1343175841       -9.1949563352  W2        6956            0.0000000000
     20868      6956  TIP3      H2            -33.2547605720       43.0206475841      -10.1079963352  W2        6956            0.0000000000
     20869      6957  TIP3      OH2           -21.6863305720       40.2976375841       -4.1850063352  W2        6957            0.0000000000
     20870      6957  TIP3      H1            -22.3748705720       40.9557075841       -4.2803463352  W2        6957            0.0000000000
     20871      6957  TIP3      H2            -21.6708705720       40.1004275841       -3.2484663352  W2        6957            0.0000000000
     20872      6958  TIP3      OH2           -35.6350505720       38.6319075841       -5.6075663352  W2        6958            0.0000000000
     20873      6958  TIP3      H1            -35.8538805720       39.1619675841       -6.3739663352  W2        6958            0.0000000000
     20874      6958  TIP3      H2            -36.3029605720       38.8584575841       -4.9604263352  W2        6958            0.0000000000
     20875      6959  TIP3      OH2           -28.2660705720       48.1320175841      -12.0636563352  W2        6959            0.0000000000
     20876      6959  TIP3      H1            -28.5615605720       47.8092475841      -12.9149663352  W2        6959            0.0000000000
     20877      6959  TIP3      H2            -28.5902905720       49.0316875841      -12.0223963352  W2        6959            0.0000000000
     20878      6960  TIP3      OH2           -33.0659105720       46.3074775841       -5.3201963352  W2        6960            0.0000000000
     20879      6960  TIP3      H1            -33.8060005720       46.9056275841       -5.2166763352  W2        6960            0.0000000000
     20880      6960  TIP3      H2            -32.3519605720       46.8614375841       -5.6358363352  W2        6960            0.0000000000
     20881      6961  TIP3      OH2           -24.9591305720       39.1355575841       -9.3002263352  W2        6961            0.0000000000
     20882      6961  TIP3      H1            -25.1743305720       38.3698975841       -8.7676263352  W2        6961            0.0000000000
     20883      6961  TIP3      H2            -24.3033905720       39.6080175841       -8.7873763352  W2        6961            0.0000000000
     20884      6962  TIP3      OH2           -36.0413205720       40.5240875841       -7.6553463352  W2        6962            0.0000000000
     20885      6962  TIP3      H1            -35.4276905720       41.1568475841       -7.2821063352  W2        6962            0.0000000000
     20886      6962  TIP3      H2            -35.5292505720       40.0515875841       -8.3116563352  W2        6962            0.0000000000
     20887      6963  TIP3      OH2           -34.6584805720       48.2717775841       -4.5330463352  W2        6963            0.0000000000
     20888      6963  TIP3      H1            -34.6637205720       49.1511275841       -4.9111163352  W2        6963            0.0000000000
     20889      6963  TIP3      H2            -35.5120705720       48.1881875841       -4.1080563352  W2        6963            0.0000000000
     20890      6964  TIP3      OH2           -38.5373905720       47.9425675841      -13.7511163352  W2        6964            0.0000000000
     20891      6964  TIP3      H1            -38.8093005720       48.1716675841      -14.6398263352  W2        6964            0.0000000000
     20892      6964  TIP3      H2            -38.4918205720       48.7804475841      -13.2905863352  W2        6964            0.0000000000
     20893      6965  TIP3      OH2           -24.9124205720       49.5641575841       -7.0382663352  W2        6965            0.0000000000
     20894      6965  TIP3      H1            -25.8540505720       49.6225475841       -6.8765763352  W2        6965            0.0000000000
     20895      6965  TIP3      H2            -24.6358105720       50.4702075841       -7.1752963352  W2        6965            0.0000000000
     20896      6966  TIP3      OH2           -24.6117205720       37.8506875841       -5.6208763352  W2        6966            0.0000000000
     20897      6966  TIP3      H1            -25.3478005720       38.4613975841       -5.6587463352  W2        6966            0.0000000000
     20898      6966  TIP3      H2            -23.9283205720       38.2655875841       -6.1472363352  W2        6966            0.0000000000
     20899      6967  TIP3      OH2           -31.6085805720       35.9374175841       -8.1550763352  W2        6967            0.0000000000
     20900      6967  TIP3      H1            -31.7261605720       34.9890175841       -8.2092463352  W2        6967            0.0000000000
     20901      6967  TIP3      H2            -32.4635705720       36.2700275841       -7.8819663352  W2        6967            0.0000000000
     20902      6968  TIP3      OH2           -26.6603005720       51.3455075841      -10.4131063352  W2        6968            0.0000000000
     20903      6968  TIP3      H1            -26.2350705720       50.6382975841      -10.8981463352  W2        6968            0.0000000000
     20904      6968  TIP3      H2            -26.3433005720       52.1467775841      -10.8298863352  W2        6968            0.0000000000
     20905      6969  TIP3      OH2           -25.5006505720       49.2463575841      -11.9044463352  W2        6969            0.0000000000
     20906      6969  TIP3      H1            -25.7581705720       48.5563675841      -12.5158563352  W2        6969            0.0000000000
     20907      6969  TIP3      H2            -25.4295705720       48.8034775841      -11.0588563352  W2        6969            0.0000000000
     20908      6970  TIP3      OH2           -23.8146305720       47.8130275841       -3.4270963352  W2        6970            0.0000000000
     20909      6970  TIP3      H1            -23.6750005720       47.2212775841       -4.1663963352  W2        6970            0.0000000000
     20910      6970  TIP3      H2            -23.6473505720       48.6856175841       -3.7832163352  W2        6970            0.0000000000
     20911      6971  TIP3      OH2           -29.3420905720       44.7749775841      -13.6544963352  W2        6971            0.0000000000
     20912      6971  TIP3      H1            -30.0535405720       45.3099475841      -14.0064463352  W2        6971            0.0000000000
     20913      6971  TIP3      H2            -28.6511305720       44.8301875841      -14.3146063352  W2        6971            0.0000000000
     20914      6972  TIP3      OH2           -29.2881705720       43.2324075841      -16.6159963352  W2        6972            0.0000000000
     20915      6972  TIP3      H1            -28.5871805720       43.2550975841      -15.9645963352  W2        6972            0.0000000000
     20916      6972  TIP3      H2            -28.9858805720       42.6043775841      -17.2720663352  W2        6972            0.0000000000
     20917      6973  TIP3      OH2           -21.9727005720       44.1528275841       -5.3610563352  W2        6973            0.0000000000
     20918      6973  TIP3      H1            -22.6252905720       44.8473875841       -5.2719663352  W2        6973            0.0000000000
     20919      6973  TIP3      H2            -21.5076705720       44.3629175841       -6.1708963352  W2        6973            0.0000000000
     20920      6974  TIP3      OH2           -25.9363205720       44.9843075841      -12.7029063352  W2        6974            0.0000000000
     20921      6974  TIP3      H1            -26.6682205720       45.2126775841      -12.1298463352  W2        6974            0.0000000000
     20922      6974  TIP3      H2            -25.4891005720       44.2705775841      -12.2481563352  W2        6974            0.0000000000
     20923      6975  TIP3      OH2           -26.0389705720       43.1585675841       -3.6352063352  W2        6975            0.0000000000
     20924      6975  TIP3      H1            -25.9590605720       43.9220075841       -3.0633563352  W2        6975            0.0000000000
     20925      6975  TIP3      H2            -26.6402005720       43.4378075841       -4.3256963352  W2        6975            0.0000000000
     20926      6976  TIP3      OH2           -34.2909505720       45.6149275841      -10.8204063352  W2        6976            0.0000000000
     20927      6976  TIP3      H1            -34.6214305720       45.2442675841      -11.6387063352  W2        6976            0.0000000000
     20928      6976  TIP3      H2            -33.7025405720       44.9443275841      -10.4735763352  W2        6976            0.0000000000
     20929      6977  TIP3      OH2           -32.9242005720       49.0429875841       -8.1391863352  W2        6977            0.0000000000
     20930      6977  TIP3      H1            -33.0190705720       48.4642975841       -8.8957263352  W2        6977            0.0000000000
     20931      6977  TIP3      H2            -32.1948405720       48.6715575841       -7.6429063352  W2        6977            0.0000000000
     20932      6978  TIP3      OH2           -33.9244005720       44.3834875841       -7.1869063352  W2        6978            0.0000000000
     20933      6978  TIP3      H1            -33.3591505720       44.5049075841       -7.9497863352  W2        6978            0.0000000000
     20934      6978  TIP3      H2            -33.6055105720       45.0209875841       -6.5480563352  W2        6978            0.0000000000
     20935      6979  TIP3      OH2           -27.6151805720       49.8866775841       -6.4528563352  W2        6979            0.0000000000
     20936      6979  TIP3      H1            -27.8555205720       50.5489875841       -5.8049363352  W2        6979            0.0000000000
     20937      6979  TIP3      H2            -27.8133605720       49.0521975841       -6.0278963352  W2        6979            0.0000000000
     20938      6980  TIP3      OH2           -33.0443305720       48.7827575841       -2.4697163352  W2        6980            0.0000000000
     20939      6980  TIP3      H1            -33.3555805720       49.5650775841       -2.0143963352  W2        6980            0.0000000000
     20940      6980  TIP3      H2            -33.6943105720       48.6296675841       -3.1555163352  W2        6980            0.0000000000
     20941      6981  TIP3      OH2           -27.0653705720       44.1465975841      -15.0177863352  W2        6981            0.0000000000
     20942      6981  TIP3      H1            -26.4858205720       44.2966275841      -14.2708963352  W2        6981            0.0000000000
     20943      6981  TIP3      H2            -26.6513705720       44.6173375841      -15.7411463352  W2        6981            0.0000000000
     20944      6982  TIP3      OH2           -36.1243405720       44.9808675841       -3.2411463352  W2        6982            0.0000000000
     20945      6982  TIP3      H1            -36.0540205720       45.6315475841       -2.5426463352  W2        6982            0.0000000000
     20946      6982  TIP3      H2            -37.0151205720       45.0836175841       -3.5760563352  W2        6982            0.0000000000
     20947      6983  TIP3      OH2           -29.3388805720       50.8834475841      -11.5824763352  W2        6983            0.0000000000
     20948      6983  TIP3      H1            -28.8651205720       51.1790775841      -10.8050563352  W2        6983            0.0000000000
     20949      6983  TIP3      H2            -29.9019505720       51.6216075841      -11.8155163352  W2        6983            0.0000000000
     20950      6984  TIP3      OH2           -34.8047405720       50.8542575841       -1.7063363352  W2        6984            0.0000000000
     20951      6984  TIP3      H1            -34.7972105720       50.7182275841       -2.6537863352  W2        6984            0.0000000000
     20952      6984  TIP3      H2            -35.7207005720       50.7370675841       -1.4543363352  W2        6984            0.0000000000
     20953      6985  TIP3      OH2           -23.3665305720       35.8966375841      -15.2048163352  W2        6985            0.0000000000
     20954      6985  TIP3      H1            -24.2664605720       36.0355375841      -14.9097563352  W2        6985            0.0000000000
     20955      6985  TIP3      H2            -23.1146905720       36.7280975841      -15.6066463352  W2        6985            0.0000000000
     20956      6986  TIP3      OH2           -35.3006805720       44.6843575841      -13.2311263352  W2        6986            0.0000000000
     20957      6986  TIP3      H1            -35.5925505720       45.4525275841      -13.7219963352  W2        6986            0.0000000000
     20958      6986  TIP3      H2            -35.9751605720       44.0249775841      -13.3939863352  W2        6986            0.0000000000
     20959      6987  TIP3      OH2           -22.1773905720       50.2628775841      -16.8284263352  W2        6987            0.0000000000
     20960      6987  TIP3      H1            -22.1040405720       51.2018975841      -16.6578963352  W2        6987            0.0000000000
     20961      6987  TIP3      H2            -21.2718805720       49.9577375841      -16.8846963352  W2        6987            0.0000000000
     20962      6988  TIP3      OH2           -39.2076705720       47.0472775841       -4.4161463352  W2        6988            0.0000000000
     20963      6988  TIP3      H1            -39.7088305720       47.0192175841       -5.2311763352  W2        6988            0.0000000000
     20964      6988  TIP3      H2            -39.2023005720       46.1415975841       -4.1064163352  W2        6988            0.0000000000
     20965      6989  TIP3      OH2           -39.4574005720       49.8276575841       -7.5321263352  W2        6989            0.0000000000
     20966      6989  TIP3      H1            -38.5113405720       49.6833575841       -7.5511763352  W2        6989            0.0000000000
     20967      6989  TIP3      H2            -39.5697705720       50.6119375841       -6.9950063352  W2        6989            0.0000000000
     20968      6990  TIP3      OH2           -21.2595505720       50.4936275841       -1.8497563352  W2        6990            0.0000000000
     20969      6990  TIP3      H1            -21.3088705720       49.5384375841       -1.8869963352  W2        6990            0.0000000000
     20970      6990  TIP3      H2            -22.0863205720       50.7611575841       -1.4483763352  W2        6990            0.0000000000
     20971      6991  TIP3      OH2           -30.2811505720       50.0675475841       -2.9736163352  W2        6991            0.0000000000
     20972      6991  TIP3      H1            -30.1936905720       50.8940075841       -2.4987063352  W2        6991            0.0000000000
     20973      6991  TIP3      H2            -31.1446405720       49.7379275841       -2.7246863352  W2        6991            0.0000000000
     20974      6992  TIP3      OH2           -29.8665705720       53.8399175841      -13.1675563352  W2        6992            0.0000000000
     20975      6992  TIP3      H1            -29.9419705720       53.7186375841      -14.1140363352  W2        6992            0.0000000000
     20976      6992  TIP3      H2            -29.8337005720       54.7891875841      -13.0490963352  W2        6992            0.0000000000
     20977      6993  TIP3      OH2           -36.2131905720       52.6286175841      -11.3866563352  W2        6993            0.0000000000
     20978      6993  TIP3      H1            -36.0611505720       52.2806575841      -10.5080063352  W2        6993            0.0000000000
     20979      6993  TIP3      H2            -37.0641505720       52.2723475841      -11.6419363352  W2        6993            0.0000000000
     20980      6994  TIP3      OH2           -26.7649705720       52.9939375841      -16.1653163352  W2        6994            0.0000000000
     20981      6994  TIP3      H1            -26.3901305720       52.2495475841      -16.6360563352  W2        6994            0.0000000000
     20982      6994  TIP3      H2            -26.7606005720       52.7239975841      -15.2469863352  W2        6994            0.0000000000
     20983      6995  TIP3      OH2           -27.0961605720       52.9196475841      -13.4160963352  W2        6995            0.0000000000
     20984      6995  TIP3      H1            -28.0311805720       53.0198375841      -13.2373963352  W2        6995            0.0000000000
     20985      6995  TIP3      H2            -26.8159705720       52.2102475841      -12.8377763352  W2        6995            0.0000000000
     20986      6996  TIP3      OH2           -24.1075705720       41.9868775841       -1.3695363352  W2        6996            0.0000000000
     20987      6996  TIP3      H1            -24.5148905720       42.4674375841       -2.0902063352  W2        6996            0.0000000000
     20988      6996  TIP3      H2            -24.0670005720       41.0814775841       -1.6774563352  W2        6996            0.0000000000
     20989      6997  TIP3      OH2           -36.9586205720       48.3708175841       -3.3728663352  W2        6997            0.0000000000
     20990      6997  TIP3      H1            -36.7424905720       48.0093775841       -2.5132863352  W2        6997            0.0000000000
     20991      6997  TIP3      H2            -37.8141505720       47.9961975841       -3.5825163352  W2        6997            0.0000000000
     20992      6998  TIP3      OH2           -34.3398205720       36.8408675841       -7.3774463352  W2        6998            0.0000000000
     20993      6998  TIP3      H1            -35.2014505720       36.7536875841       -7.7851563352  W2        6998            0.0000000000
     20994      6998  TIP3      H2            -34.3622505720       37.6968775841       -6.9496863352  W2        6998            0.0000000000
     20995      6999  TIP3      OH2           -29.6770405720       36.5629075841       -4.0027463352  W2        6999            0.0000000000
     20996      6999  TIP3      H1            -29.2567305720       36.1476175841       -3.2496863352  W2        6999            0.0000000000
     20997      6999  TIP3      H2            -30.6100805720       36.3842375841       -3.8855463352  W2        6999            0.0000000000
     20998      7000  TIP3      OH2           -26.3505505720       40.3184275841       -3.1492963352  W2        7000            0.0000000000
     20999      7000  TIP3      H1            -26.8646005720       40.1926475841       -2.3516963352  W2        7000            0.0000000000
     21000      7000  TIP3      H2            -26.5060805720       41.2307375841       -3.3936763352  W2        7000            0.0000000000
     21001      7001  TIP3      OH2           -25.5880605720       45.1794275841      -17.3879963352  W2        7001            0.0000000000
     21002      7001  TIP3      H1            -25.5459805720       44.9568175841      -18.3179963352  W2        7001            0.0000000000
     21003      7001  TIP3      H2            -24.7388505720       45.5781375841      -17.1980063352  W2        7001            0.0000000000
     21004      7002  TIP3      OH2           -30.0153105720       39.0552475841      -16.7176663352  W2        7002            0.0000000000
     21005      7002  TIP3      H1            -30.2688305720       39.0744075841      -15.7948563352  W2        7002            0.0000000000
     21006      7002  TIP3      H2            -30.2721005720       38.1837875841      -17.0190463352  W2        7002            0.0000000000
     21007      7003  TIP3      OH2           -34.2488105720       41.8063175841       -6.2824263352  W2        7003            0.0000000000
     21008      7003  TIP3      H1            -34.8906005720       41.7660475841       -5.5734163352  W2        7003            0.0000000000
     21009      7003  TIP3      H2            -34.2116105720       42.7327875841       -6.5201263352  W2        7003            0.0000000000
     21010      7004  TIP3      OH2           -34.2519005720       42.0273275841      -11.3704263352  W2        7004            0.0000000000
     21011      7004  TIP3      H1            -35.1446105720       41.6869375841      -11.4290463352  W2        7004            0.0000000000
     21012      7004  TIP3      H2            -33.8012405720       41.6504175841      -12.1261063352  W2        7004            0.0000000000
     21013      7005  TIP3      OH2           -28.7163505720       42.4433575841      -12.5533463352  W2        7005            0.0000000000
     21014      7005  TIP3      H1            -29.1253205720       43.2582175841      -12.8448663352  W2        7005            0.0000000000
     21015      7005  TIP3      H2            -27.9957305720       42.3033675841      -13.1676363352  W2        7005            0.0000000000
     21016      7006  TIP3      OH2           -29.6141905720       42.6189975841       -1.0652763352  W2        7006            0.0000000000
     21017      7006  TIP3      H1            -30.1768105720       41.9141575841       -0.7444963352  W2        7006            0.0000000000
     21018      7006  TIP3      H2            -28.7878505720       42.4981875841       -0.5975163352  W2        7006            0.0000000000
     21019      7007  TIP3      OH2           -27.7115805720       41.8893975841       -9.7393763352  W2        7007            0.0000000000
     21020      7007  TIP3      H1            -27.9071305720       42.4950775841      -10.4543163352  W2        7007            0.0000000000
     21021      7007  TIP3      H2            -27.5303205720       41.0559175841      -10.1737463352  W2        7007            0.0000000000
     21022      7008  TIP3      OH2           -36.4987605720       42.1266675841       -4.4152263352  W2        7008            0.0000000000
     21023      7008  TIP3      H1            -36.5368205720       42.5268275841       -3.5465163352  W2        7008            0.0000000000
     21024      7008  TIP3      H2            -36.9896505720       41.3099075841       -4.3249363352  W2        7008            0.0000000000
     21025      7009  TIP3      OH2           -33.1330205720       39.5008975841      -17.6166263352  W2        7009            0.0000000000
     21026      7009  TIP3      H1            -33.5639505720       39.0559075841      -16.8868863352  W2        7009            0.0000000000
     21027      7009  TIP3      H2            -33.8511505720       39.8725275841      -18.1288763352  W2        7009            0.0000000000
     21028      7010  TIP3      OH2           -39.8906805720       39.2428475841      -10.5647563352  W2        7010            0.0000000000
     21029      7010  TIP3      H1            -39.2599105720       39.2140575841       -9.8453663352  W2        7010            0.0000000000
     21030      7010  TIP3      H2            -39.4412505720       38.8177175841      -11.2951663352  W2        7010            0.0000000000
     21031      7011  TIP3      OH2           -38.6164705720       39.9890475841      -15.1407163352  W2        7011            0.0000000000
     21032      7011  TIP3      H1            -38.1423005720       40.5800375841      -15.7256263352  W2        7011            0.0000000000
     21033      7011  TIP3      H2            -39.3338305720       40.5193375841      -14.7937063352  W2        7011            0.0000000000
     21034      7012  TIP3      OH2           -28.4476605720       43.5275275841       -5.0681363352  W2        7012            0.0000000000
     21035      7012  TIP3      H1            -28.1241805720       42.8964975841       -5.7110863352  W2        7012            0.0000000000
     21036      7012  TIP3      H2            -28.8877305720       42.9927475841       -4.4073963352  W2        7012            0.0000000000
     21037      7013  TIP3      OH2           -31.6703705720       39.4550775841      -10.2840163352  W2        7013            0.0000000000
     21038      7013  TIP3      H1            -32.5812605720       39.5117575841       -9.9954163352  W2        7013            0.0000000000
     21039      7013  TIP3      H2            -31.1650805720       39.3946275841       -9.4732963352  W2        7013            0.0000000000
     21040      7014  TIP3      OH2           -36.8420305720       41.0837075841      -11.4572563352  W2        7014            0.0000000000
     21041      7014  TIP3      H1            -37.7312305720       41.1832575841      -11.7972963352  W2        7014            0.0000000000
     21042      7014  TIP3      H2            -36.5455405720       40.2420075841      -11.8034663352  W2        7014            0.0000000000
     21043      7015  TIP3      OH2           -33.1888505720       41.0839675841      -13.8007963352  W2        7015            0.0000000000
     21044      7015  TIP3      H1            -32.2573005720       41.2129675841      -13.6224863352  W2        7015            0.0000000000
     21045      7015  TIP3      H2            -33.4038205720       41.7533975841      -14.4503263352  W2        7015            0.0000000000
     21046      7016  TIP3      OH2           -27.2651805720       38.6897075841       -7.0198363352  W2        7016            0.0000000000
     21047      7016  TIP3      H1            -27.9420205720       38.8210175841       -6.3558663352  W2        7016            0.0000000000
     21048      7016  TIP3      H2            -27.7506905720       38.5346575841       -7.8300663352  W2        7016            0.0000000000
     21049      7017  TIP3      OH2           -34.5148305720       42.2781875841      -16.2341863352  W2        7017            0.0000000000
     21050      7017  TIP3      H1            -35.0573205720       41.8985675841      -16.9254263352  W2        7017            0.0000000000
     21051      7017  TIP3      H2            -33.6813405720       42.4726575841      -16.6627763352  W2        7017            0.0000000000
     21052      7018  TIP3      OH2           -23.9776705720       54.3612475841       -0.7430763352  W2        7018            0.0000000000
     21053      7018  TIP3      H1            -23.7778005720       54.7854375841       -1.5775463352  W2        7018            0.0000000000
     21054      7018  TIP3      H2            -23.3223005720       54.7050675841       -0.1360363352  W2        7018            0.0000000000
     21055      7019  TIP3      OH2           -36.3796905720       46.8353775841       -1.1350263352  W2        7019            0.0000000000
     21056      7019  TIP3      H1            -35.6474505720       47.0899675841       -0.5735763352  W2        7019            0.0000000000
     21057      7019  TIP3      H2            -37.1598205720       47.0399175841       -0.6194863352  W2        7019            0.0000000000
     21058      7020  TIP3      OH2           -30.3504005720       42.2423775841       -8.3970563352  W2        7020            0.0000000000
     21059      7020  TIP3      H1            -29.7860605720       41.6960375841       -8.9440963352  W2        7020            0.0000000000
     21060      7020  TIP3      H2            -30.4980605720       41.7205675841       -7.6082963352  W2        7020            0.0000000000
     21061      7021  TIP3      OH2           -35.3484305720       38.3789875841      -11.9785763352  W2        7021            0.0000000000
     21062      7021  TIP3      H1            -35.6654805720       37.4765175841      -12.0140363352  W2        7021            0.0000000000
     21063      7021  TIP3      H2            -34.5670205720       38.3807275841      -12.5314163352  W2        7021            0.0000000000
     21064      7022  TIP3      OH2           -31.7238105720       40.6309875841       -5.9830163352  W2        7022            0.0000000000
     21065      7022  TIP3      H1            -32.5592805720       41.0849375841       -5.8727763352  W2        7022            0.0000000000
     21066      7022  TIP3      H2            -31.1997505720       40.9068375841       -5.2310263352  W2        7022            0.0000000000
     21067      7023  TIP3      OH2           -31.1795505720       46.8437575841      -14.2983763352  W2        7023            0.0000000000
     21068      7023  TIP3      H1            -31.9244505720       46.3362875841      -14.6205863352  W2        7023            0.0000000000
     21069      7023  TIP3      H2            -31.3138305720       46.8925575841      -13.3518963352  W2        7023            0.0000000000
     21070      7024  TIP3      OH2           -24.0296605720       45.9765775841       -5.5116163352  W2        7024            0.0000000000
     21071      7024  TIP3      H1            -23.3877805720       46.4332075841       -6.0553963352  W2        7024            0.0000000000
     21072      7024  TIP3      H2            -24.8599705720       46.0898175841       -5.9742063352  W2        7024            0.0000000000
     21073      7025  TIP3      OH2           -27.2818705720       39.6577475841      -16.0991163352  W2        7025            0.0000000000
     21074      7025  TIP3      H1            -28.2204505720       39.7693075841      -16.2502363352  W2        7025            0.0000000000
     21075      7025  TIP3      H2            -26.9846605720       40.5144375841      -15.7925463352  W2        7025            0.0000000000
     21076      7026  TIP3      OH2           -29.6603405720       47.0280875841       -3.0614663352  W2        7026            0.0000000000
     21077      7026  TIP3      H1            -30.0057305720       46.6463275841       -2.2545063352  W2        7026            0.0000000000
     21078      7026  TIP3      H2            -29.8603305720       47.9614475841       -2.9901763352  W2        7026            0.0000000000
     21079      7027  TIP3      OH2           -26.5635205720       41.5250175841      -14.4383763352  W2        7027            0.0000000000
     21080      7027  TIP3      H1            -25.6716205720       41.3875175841      -14.1192563352  W2        7027            0.0000000000
     21081      7027  TIP3      H2            -26.5071605720       42.3156275841      -14.9750263352  W2        7027            0.0000000000
     21082      7028  TIP3      OH2           -36.0547205720       46.1387575841       -8.5285863352  W2        7028            0.0000000000
     21083      7028  TIP3      H1            -35.3100005720       46.1363275841       -9.1299363352  W2        7028            0.0000000000
     21084      7028  TIP3      H2            -35.9770605720       45.3151375841       -8.0470763352  W2        7028            0.0000000000
     21085      7029  TIP3      OH2           -29.0541405720       48.3021875841      -15.2729163352  W2        7029            0.0000000000
     21086      7029  TIP3      H1            -29.3493005720       49.1289775841      -14.8914363352  W2        7029            0.0000000000
     21087      7029  TIP3      H2            -29.7571405720       47.6828775841      -15.0767763352  W2        7029            0.0000000000
     21088      7030  TIP3      OH2           -39.0467505720       44.5994475841       -3.2137363352  W2        7030            0.0000000000
     21089      7030  TIP3      H1            -38.8238905720       44.1814075841       -2.3819863352  W2        7030            0.0000000000
     21090      7030  TIP3      H2            -39.6487405720       43.9869475841       -3.6364563352  W2        7030            0.0000000000
     21091      7031  TIP3      OH2           -32.0302605720       44.1164375841       -1.0007663352  W2        7031            0.0000000000
     21092      7031  TIP3      H1            -32.3261805720       43.9507375841       -1.8958563352  W2        7031            0.0000000000
     21093      7031  TIP3      H2            -31.0987405720       43.8964675841       -1.0113763352  W2        7031            0.0000000000
     21094      7032  TIP3      OH2           -27.4099805720       49.4896375841       -3.1109663352  W2        7032            0.0000000000
     21095      7032  TIP3      H1            -28.3105505720       49.6728975841       -3.3785763352  W2        7032            0.0000000000
     21096      7032  TIP3      H2            -27.3758705720       49.7485675841       -2.1900863352  W2        7032            0.0000000000
     21097      7033  TIP3      OH2           -21.6786505720       41.7344275841      -14.7437063352  W2        7033            0.0000000000
     21098      7033  TIP3      H1            -22.2330205720       41.3382275841      -15.4159563352  W2        7033            0.0000000000
     21099      7033  TIP3      H2            -21.5782905720       42.6449475841      -15.0213763352  W2        7033            0.0000000000
     21100      7034  TIP3      OH2           -21.7154505720       47.5345975841       -1.9065563352  W2        7034            0.0000000000
     21101      7034  TIP3      H1            -22.5666005720       47.7729775841       -2.2739163352  W2        7034            0.0000000000
     21102      7034  TIP3      H2            -21.1251105720       47.5179175841       -2.6598463352  W2        7034            0.0000000000
     21103      7035  TIP3      OH2           -23.3834805720       50.5204675841      -14.2784963352  W2        7035            0.0000000000
     21104      7035  TIP3      H1            -23.7563705720       49.6948475841      -13.9694363352  W2        7035            0.0000000000
     21105      7035  TIP3      H2            -23.1061305720       50.3374075841      -15.1761563352  W2        7035            0.0000000000
     21106      7036  TIP3      OH2           -26.2230905720       45.3284175841       -7.2573063352  W2        7036            0.0000000000
     21107      7036  TIP3      H1            -27.1514005720       45.0966075841       -7.2843763352  W2        7036            0.0000000000
     21108      7036  TIP3      H2            -25.7719805720       44.5513975841       -7.5874263352  W2        7036            0.0000000000
     21109      7037  TIP3      OH2           -33.6797805720       49.6565775841      -11.1244363352  W2        7037            0.0000000000
     21110      7037  TIP3      H1            -33.1525605720       50.4300175841      -11.3245563352  W2        7037            0.0000000000
     21111      7037  TIP3      H2            -34.5599305720       49.8814975841      -11.4260363352  W2        7037            0.0000000000
     21112      7038  TIP3      OH2           -37.9250105720       44.5189875841      -16.5371963352  W2        7038            0.0000000000
     21113      7038  TIP3      H1            -37.3090205720       45.1457075841      -16.1577163352  W2        7038            0.0000000000
     21114      7038  TIP3      H2            -38.7867505720       44.8349675841      -16.2655463352  W2        7038            0.0000000000
     21115      7039  TIP3      OH2           -32.2525505720       47.3195675841      -11.5480063352  W2        7039            0.0000000000
     21116      7039  TIP3      H1            -32.4935505720       48.2450075841      -11.5064763352  W2        7039            0.0000000000
     21117      7039  TIP3      H2            -32.9931905720       46.8606975841      -11.1516163352  W2        7039            0.0000000000
     21118      7040  TIP3      OH2           -31.7378905720       51.4689275841       -5.2328963352  W2        7040            0.0000000000
     21119      7040  TIP3      H1            -31.3754205720       52.3234875841       -5.4664563352  W2        7040            0.0000000000
     21120      7040  TIP3      H2            -31.2063705720       51.1770875841       -4.4922663352  W2        7040            0.0000000000
     21121      7041  TIP3      OH2           -33.5694705720       52.3413275841      -12.0027863352  W2        7041            0.0000000000
     21122      7041  TIP3      H1            -34.5194205720       52.4470675841      -11.9514563352  W2        7041            0.0000000000
     21123      7041  TIP3      H2            -33.2176605720       53.1620675841      -11.6580363352  W2        7041            0.0000000000
     21124      7042  TIP3      OH2           -28.1938105720       47.5679975841       -5.5323363352  W2        7042            0.0000000000
     21125      7042  TIP3      H1            -28.6196805720       47.3401675841       -4.7059363352  W2        7042            0.0000000000
     21126      7042  TIP3      H2            -27.6132305720       46.8291775841       -5.7148063352  W2        7042            0.0000000000
     21127      7043  TIP3      OH2           -25.9909205720       48.4970475841      -16.4584363352  W2        7043            0.0000000000
     21128      7043  TIP3      H1            -25.6376105720       48.1170275841      -15.6540863352  W2        7043            0.0000000000
     21129      7043  TIP3      H2            -26.9395705720       48.4035275841      -16.3715063352  W2        7043            0.0000000000
     21130      7044  TIP3      OH2           -25.5353905720       52.1199475841       -3.0628563352  W2        7044            0.0000000000
     21131      7044  TIP3      H1            -26.1370705720       51.5642375841       -3.5582263352  W2        7044            0.0000000000
     21132      7044  TIP3      H2            -25.2540205720       52.7869275841       -3.6891163352  W2        7044            0.0000000000
     21133      7045  TIP3      OH2           -21.4874805720       52.9762975841      -16.2574163352  W2        7045            0.0000000000
     21134      7045  TIP3      H1            -20.7436905720       53.5623475841      -16.3972563352  W2        7045            0.0000000000
     21135      7045  TIP3      H2            -22.1816705720       53.5448775841      -15.9241763352  W2        7045            0.0000000000
     21136      7046  TIP3      OH2           -37.4128005720       39.3527175841       -3.6555963352  W2        7046            0.0000000000
     21137      7046  TIP3      H1            -38.3055705720       39.6912575841       -3.7231963352  W2        7046            0.0000000000
     21138      7046  TIP3      H2            -37.5115205720       38.4973275841       -3.2375163352  W2        7046            0.0000000000
     21139      7047  TIP3      OH2           -25.1249905720       47.1692475841      -14.2316463352  W2        7047            0.0000000000
     21140      7047  TIP3      H1            -25.4022305720       46.4411775841      -13.6755363352  W2        7047            0.0000000000
     21141      7047  TIP3      H2            -24.1976905720       47.2884475841      -14.0263863352  W2        7047            0.0000000000
     21142      7048  TIP3      OH2           -37.7616005720       51.1571575841       -5.2206563352  W2        7048            0.0000000000
     21143      7048  TIP3      H1            -37.5445705720       50.2253975841       -5.2516863352  W2        7048            0.0000000000
     21144      7048  TIP3      H2            -37.5152505720       51.4316575841       -4.3373763352  W2        7048            0.0000000000
     21145      7049  TIP3      OH2           -31.9001405720       49.6086575841      -18.0114363352  W2        7049            0.0000000000
     21146      7049  TIP3      H1            -31.6611605720       48.8604675841      -18.5585463352  W2        7049            0.0000000000
     21147      7049  TIP3      H2            -32.1690105720       49.2208275841      -17.1786563352  W2        7049            0.0000000000
     21148      7050  TIP3      OH2           -32.9630805720       49.1790375841      -15.5551763352  W2        7050            0.0000000000
     21149      7050  TIP3      H1            -32.8162805720       48.6590175841      -14.7650863352  W2        7050            0.0000000000
     21150      7050  TIP3      H2            -32.9659105720       50.0857975841      -15.2485863352  W2        7050            0.0000000000
     21151      7051  TIP3      OH2           -36.5099705720       46.4313675841      -15.0446363352  W2        7051            0.0000000000
     21152      7051  TIP3      H1            -37.1960405720       46.7836175841      -14.4776663352  W2        7051            0.0000000000
     21153      7051  TIP3      H2            -35.9871805720       47.1943275841      -15.2912063352  W2        7051            0.0000000000
     21154      7052  TIP3      OH2           -28.6784605720       39.0937475841       -4.7657363352  W2        7052            0.0000000000
     21155      7052  TIP3      H1            -27.9796705720       39.1676175841       -4.1157663352  W2        7052            0.0000000000
     21156      7052  TIP3      H2            -29.0593205720       38.2292475841       -4.6114463352  W2        7052            0.0000000000
     21157      7053  TIP3      OH2           -27.8939705720       38.7459175841      -13.6685063352  W2        7053            0.0000000000
     21158      7053  TIP3      H1            -27.6741405720       39.2174575841      -14.4719663352  W2        7053            0.0000000000
     21159      7053  TIP3      H2            -27.3355705720       39.1401775841      -12.9984463352  W2        7053            0.0000000000
     21160      7054  TIP3      OH2           -30.2253605720       50.8763975841      -14.8057563352  W2        7054            0.0000000000
     21161      7054  TIP3      H1            -31.0417505720       51.3733675841      -14.7533263352  W2        7054            0.0000000000
     21162      7054  TIP3      H2            -29.6957305720       51.3517475841      -15.4458763352  W2        7054            0.0000000000
     21163      7055  TIP3      OH2           -30.6939805720       40.4737975841      -12.8336663352  W2        7055            0.0000000000
     21164      7055  TIP3      H1            -29.8817205720       40.9781175841      -12.7874963352  W2        7055            0.0000000000
     21165      7055  TIP3      H2            -30.9386805720       40.3287675841      -11.9197063352  W2        7055            0.0000000000
     21166      7056  TIP3      OH2           -30.1583405720       41.4600675841       -3.6490063352  W2        7056            0.0000000000
     21167      7056  TIP3      H1            -30.0393105720       42.0336075841       -2.8919663352  W2        7056            0.0000000000
     21168      7056  TIP3      H2            -29.5028805720       40.7720075841       -3.5342263352  W2        7056            0.0000000000
     21169      7057  TIP3      OH2           -29.8103105720       37.5550975841      -11.8955563352  W2        7057            0.0000000000
     21170      7057  TIP3      H1            -30.1569605720       38.1721575841      -11.2511263352  W2        7057            0.0000000000
     21171      7057  TIP3      H2            -29.1516205720       38.0556675841      -12.3770063352  W2        7057            0.0000000000
     21172      7058  TIP3      OH2           -32.8870505720       51.9201175841      -14.8240663352  W2        7058            0.0000000000
     21173      7058  TIP3      H1            -32.7261805720       52.7198675841      -15.3248063352  W2        7058            0.0000000000
     21174      7058  TIP3      H2            -33.0842705720       52.2267175841      -13.9390063352  W2        7058            0.0000000000
     21175      7059  TIP3      OH2           -34.1526105720       38.6180375841      -15.2083063352  W2        7059            0.0000000000
     21176      7059  TIP3      H1            -34.2361305720       39.5063475841      -14.8616663352  W2        7059            0.0000000000
     21177      7059  TIP3      H2            -33.2625805720       38.3527075841      -14.9766263352  W2        7059            0.0000000000
     21178      7060  TIP3      OH2           -23.9537605720       39.3670975841       -2.8140363352  W2        7060            0.0000000000
     21179      7060  TIP3      H1            -24.8701805720       39.6292675841       -2.9016663352  W2        7060            0.0000000000
     21180      7060  TIP3      H2            -23.6182605720       39.3639975841       -3.7105063352  W2        7060            0.0000000000
     21181      7061  TIP3      OH2           -25.3516605720       43.1171975841       -8.7183063352  W2        7061            0.0000000000
     21182      7061  TIP3      H1            -26.1492205720       42.7022175841       -9.0468063352  W2        7061            0.0000000000
     21183      7061  TIP3      H2            -24.9065505720       42.4265675841       -8.2272563352  W2        7061            0.0000000000
     21184      7062  TIP3      OH2           -35.8940805720       49.0452575841      -16.1478563352  W2        7062            0.0000000000
     21185      7062  TIP3      H1            -35.3019305720       49.7447375841      -15.8716163352  W2        7062            0.0000000000
     21186      7062  TIP3      H2            -35.4347805720       48.6122075841      -16.8673963352  W2        7062            0.0000000000
     21187      7063  TIP3      OH2           -37.5781605720       41.7095575841      -17.0319163352  W2        7063            0.0000000000
     21188      7063  TIP3      H1            -37.6229005720       42.6488675841      -16.8532163352  W2        7063            0.0000000000
     21189      7063  TIP3      H2            -38.4658405720       41.4740475841      -17.3017063352  W2        7063            0.0000000000
     21190      7064  TIP3      OH2           -24.2652005720       52.3734475841       -7.0959563352  W2        7064            0.0000000000
     21191      7064  TIP3      H1            -24.4207705720       53.0518875841       -7.7530263352  W2        7064            0.0000000000
     21192      7064  TIP3      H2            -23.3325605720       52.4453775841       -6.8928963352  W2        7064            0.0000000000
     21193      7065  TIP3      OH2           -36.7699605720       36.4912175841       -8.3588163352  W2        7065            0.0000000000
     21194      7065  TIP3      H1            -36.9989805720       36.5504675841       -9.2863163352  W2        7065            0.0000000000
     21195      7065  TIP3      H2            -37.2126205720       35.6997675841       -8.0524063352  W2        7065            0.0000000000
     21196      7066  TIP3      OH2           -37.8396305720       50.4319275841      -12.1982363352  W2        7066            0.0000000000
     21197      7066  TIP3      H1            -38.6717705720       50.9041975841      -12.1710963352  W2        7066            0.0000000000
     21198      7066  TIP3      H2            -37.2938005720       50.9416875841      -12.7969263352  W2        7066            0.0000000000
     21199      7067  TIP3      OH2           -38.5512605720       53.0442975841       -0.8684363352  W2        7067            0.0000000000
     21200      7067  TIP3      H1            -38.0110405720       52.8276975841       -0.1085163352  W2        7067            0.0000000000
     21201      7067  TIP3      H2            -39.0324605720       52.2388975841       -1.0581863352  W2        7067            0.0000000000
     21202      7068  TIP3      OH2           -33.9539205720       51.9637375841        0.7519836648  W2        7068            0.0000000000
     21203      7068  TIP3      H1            -33.1862005720       51.5048175841        1.0929036648  W2        7068            0.0000000000
     21204      7068  TIP3      H2            -33.9753005720       51.7377175841       -0.1778963352  W2        7068            0.0000000000
     21205      7069  TIP3      OH2           -29.8619605720       51.4717975841      -17.8728363352  W2        7069            0.0000000000
     21206      7069  TIP3      H1            -30.5058605720       50.8406575841      -17.5514663352  W2        7069            0.0000000000
     21207      7069  TIP3      H2            -29.1001305720       50.9405975841      -18.1044863352  W2        7069            0.0000000000
     21208      7070  TIP3      OH2           -27.3770505720       50.3438475841       -0.5188663352  W2        7070            0.0000000000
     21209      7070  TIP3      H1            -27.7281005720       49.4871475841       -0.2758263352  W2        7070            0.0000000000
     21210      7070  TIP3      H2            -26.6507305720       50.4865175841        0.0880336648  W2        7070            0.0000000000
     21211      7071  TIP3      OH2           -25.2576705720       51.2887875841      -17.6390363352  W2        7071            0.0000000000
     21212      7071  TIP3      H1            -24.9746305720       50.4943075841      -17.1863463352  W2        7071            0.0000000000
     21213      7071  TIP3      H2            -24.5178805720       51.5218875841      -18.1999263352  W2        7071            0.0000000000
     21214      7072  TIP3      OH2           -38.6443105720       46.8547075841        0.0859936648  W2        7072            0.0000000000
     21215      7072  TIP3      H1            -38.5002605720       45.9527775841       -0.2003363352  W2        7072            0.0000000000
     21216      7072  TIP3      H2            -39.4165705720       47.1409175841       -0.4017763352  W2        7072            0.0000000000
     21217      7073  TIP3      OH2           -34.3029405720       47.1982775841      -17.7815463352  W2        7073            0.0000000000
     21218      7073  TIP3      H1            -34.2385305720       46.4042375841      -17.2509063352  W2        7073            0.0000000000
     21219      7073  TIP3      H2            -33.6500205720       47.0795575841      -18.4713463352  W2        7073            0.0000000000
     21220      7074  TIP3      OH2           -31.9887005720       46.8245175841       -0.4813663352  W2        7074            0.0000000000
     21221      7074  TIP3      H1            -32.3173205720       47.0953275841       -1.3386263352  W2        7074            0.0000000000
     21222      7074  TIP3      H2            -31.8368805720       45.8834975841       -0.5688663352  W2        7074            0.0000000000
     21223      7075  TIP3      OH2           -28.9506005720       48.2454475841      -18.0457463352  W2        7075            0.0000000000
     21224      7075  TIP3      H1            -29.2191905720       48.4256575841      -17.1448563352  W2        7075            0.0000000000
     21225      7075  TIP3      H2            -29.1570405720       47.3200675841      -18.1771663352  W2        7075            0.0000000000
     21226      7076  TIP3      OH2           -26.2541805720       46.7402475841       -3.0981363352  W2        7076            0.0000000000
     21227      7076  TIP3      H1            -25.5087005720       47.3286175841       -3.2177363352  W2        7076            0.0000000000
     21228      7076  TIP3      H2            -27.0115005720       47.3222175841       -3.0348263352  W2        7076            0.0000000000
     21229      7077  TIP3      OH2           -37.8116605720       44.0550375841       -0.4940763352  W2        7077            0.0000000000
     21230      7077  TIP3      H1            -37.4035405720       43.1976975841       -0.6150163352  W2        7077            0.0000000000
     21231      7077  TIP3      H2            -38.0719005720       44.0691675841        0.4269536648  W2        7077            0.0000000000
     21232      7078  TIP3      OH2           -33.1535605720       45.1708975841      -15.4757463352  W2        7078            0.0000000000
     21233      7078  TIP3      H1            -33.6133605720       44.6867275841      -14.7898963352  W2        7078            0.0000000000
     21234      7078  TIP3      H2            -32.8986905720       44.5024375841      -16.1116963352  W2        7078            0.0000000000
     21235      7079  TIP3      OH2           -33.8646305720       43.0636075841       -3.1197863352  W2        7079            0.0000000000
     21236      7079  TIP3      H1            -34.4830205720       43.7382675841       -2.8393163352  W2        7079            0.0000000000
     21237      7079  TIP3      H2            -33.5205105720       43.3849975841       -3.9531663352  W2        7079            0.0000000000
     21238      7080  TIP3      OH2           -32.0825205720       43.4140775841      -17.2134263352  W2        7080            0.0000000000
     21239      7080  TIP3      H1            -32.2630205720       43.2591975841      -18.1405963352  W2        7080            0.0000000000
     21240      7080  TIP3      H2            -31.1324705720       43.5219475841      -17.1686363352  W2        7080            0.0000000000
     21241      7081  TIP3      OH2           -28.8448105720       45.5351375841        0.1576936648  W2        7081            0.0000000000
     21242      7081  TIP3      H1            -27.8916905720       45.6190475841        0.1302936648  W2        7081            0.0000000000
     21243      7081  TIP3      H2            -29.0053505720       44.8233175841        0.7771836648  W2        7081            0.0000000000
     21244      7082  TIP3      OH2           -22.6926905720       45.7684975841      -17.7676163352  W2        7082            0.0000000000
     21245      7082  TIP3      H1            -22.9662105720       45.3440475841      -18.5807863352  W2        7082            0.0000000000
     21246      7082  TIP3      H2            -22.6532805720       46.6999475841      -17.9845763352  W2        7082            0.0000000000
     21247      7083  TIP3      OH2           -33.5252605720       40.4186875841       -2.0374763352  W2        7083            0.0000000000
     21248      7083  TIP3      H1            -33.3751705720       39.6898175841       -2.6395063352  W2        7083            0.0000000000
     21249      7083  TIP3      H2            -33.5230205720       41.1958575841       -2.5962563352  W2        7083            0.0000000000
     21250      7084  TIP3      OH2           -33.1126905720       38.7882675841       -4.5447363352  W2        7084            0.0000000000
     21251      7084  TIP3      H1            -32.5769405720       39.2399375841       -5.1968063352  W2        7084            0.0000000000
     21252      7084  TIP3      H2            -33.9647305720       38.6802475841       -4.9673263352  W2        7084            0.0000000000
     21253      7085  TIP3      OH2           -31.5308505720       44.2278875841       -4.3052163352  W2        7085            0.0000000000
     21254      7085  TIP3      H1            -30.7803705720       44.0716375841       -4.8784363352  W2        7085            0.0000000000
     21255      7085  TIP3      H2            -31.8700205720       45.0795475841       -4.5806663352  W2        7085            0.0000000000
     21256      7086  TIP3      OH2           -27.1152305720       42.0430675841        0.7233136648  W2        7086            0.0000000000
     21257      7086  TIP3      H1            -26.9231005720       41.1120075841        0.6117636648  W2        7086            0.0000000000
     21258      7086  TIP3      H2            -26.2576005720       42.4680175841        0.7128536648  W2        7086            0.0000000000
     21259      7087  TIP3      OH2           -25.7985105720       44.8315875841       -1.1994163352  W2        7087            0.0000000000
     21260      7087  TIP3      H1            -26.0800105720       45.5410475841       -1.7770363352  W2        7087            0.0000000000
     21261      7087  TIP3      H2            -24.8560805720       44.7588875841       -1.3502963352  W2        7087            0.0000000000
     21262      7088  TIP3      OH2           -35.0466305720       41.6170375841       -0.1259163352  W2        7088            0.0000000000
     21263      7088  TIP3      H1            -35.8137305720       41.0845175841       -0.3361563352  W2        7088            0.0000000000
     21264      7088  TIP3      H2            -34.3677305720       41.3070775841       -0.7252863352  W2        7088            0.0000000000
     21265      7089  TIP3      OH2           -32.3071405720       36.2448375841       -4.1133763352  W2        7089            0.0000000000
     21266      7089  TIP3      H1            -32.4051805720       37.1911575841       -4.2187563352  W2        7089            0.0000000000
     21267      7089  TIP3      H2            -33.0495205720       35.8722175841       -4.5890263352  W2        7089            0.0000000000
     21268      7090  TIP3      OH2           -31.0430905720       40.5663775841       -0.5495363352  W2        7090            0.0000000000
     21269      7090  TIP3      H1            -31.2785505720       40.3470475841        0.3519536648  W2        7090            0.0000000000
     21270      7090  TIP3      H2            -31.8264005720       40.3594975841       -1.0592863352  W2        7090            0.0000000000
     21271      7091  TIP3      OH2           -28.3274305720       39.6937275841       -1.4741863352  W2        7091            0.0000000000
     21272      7091  TIP3      H1            -29.2748905720       39.7256975841       -1.3418563352  W2        7091            0.0000000000
     21273      7091  TIP3      H2            -28.0147605720       39.0684375841       -0.8203663352  W2        7091            0.0000000000
     21274      7092  TIP3      OH2           -26.6932805720       38.3278375841        0.5310036648  W2        7092            0.0000000000
     21275      7092  TIP3      H1            -26.7901005720       37.3755675841        0.5251936648  W2        7092            0.0000000000
     21276      7092  TIP3      H2            -27.0149705720       38.5965175841        1.3915536648  W2        7092            0.0000000000
     21277      7093  TIP3      OH2           -36.8663505720       39.5374175841       -0.4214463352  W2        7093            0.0000000000
     21278      7093  TIP3      H1            -36.6546105720       38.8310275841       -1.0316963352  W2        7093            0.0000000000
     21279      7093  TIP3      H2            -36.9776005720       39.1000175841        0.4226736648  W2        7093            0.0000000000
     21280      7094  TIP3      OH2           -32.0853305720       35.5385775841       -1.4420963352  W2        7094            0.0000000000
     21281      7094  TIP3      H1            -31.3734905720       34.8987975841       -1.4561863352  W2        7094            0.0000000000
     21282      7094  TIP3      H2            -32.1862905720       35.8054075841       -2.3557863352  W2        7094            0.0000000000
     21283      7095  TIP3      OH2           -31.7315805720       37.2214175841        0.6115336648  W2        7095            0.0000000000
     21284      7095  TIP3      H1            -31.8633605720       36.7457975841       -0.2086163352  W2        7095            0.0000000000
     21285      7095  TIP3      H2            -32.3308405720       37.9657775841        0.5562436648  W2        7095            0.0000000000
     21286      7096  TIP3      OH2           -32.1853505720       54.1044475841      -16.2120663352  W2        7096            0.0000000000
     21287      7096  TIP3      H1            -31.2522805720       54.2623175841      -16.0682263352  W2        7096            0.0000000000
     21288      7096  TIP3      H2            -32.4494705720       54.7797475841      -16.8369163352  W2        7096            0.0000000000
     21289      7097  TIP3      OH2           -38.6168605720       48.7408275841      -16.7292563352  W2        7097            0.0000000000
     21290      7097  TIP3      H1            -37.7029405720       48.8197175841      -16.4558663352  W2        7097            0.0000000000
     21291      7097  TIP3      H2            -38.6095505720       48.0537875841      -17.3956963352  W2        7097            0.0000000000
     21292      7098  TIP3      OH2           -39.9678005720       54.1336775841      -11.6518663352  W2        7098            0.0000000000
     21293      7098  TIP3      H1            -40.6150905720       53.6718475841      -12.1847463352  W2        7098            0.0000000000
     21294      7098  TIP3      H2            -39.6133405720       53.4620075841      -11.0692463352  W2        7098            0.0000000000
     21295      7099  TIP3      OH2           -39.0978805720       52.2143775841       -9.8472463352  W2        7099            0.0000000000
     21296      7099  TIP3      H1            -39.4322005720       51.3341075841       -9.6752263352  W2        7099            0.0000000000
     21297      7099  TIP3      H2            -38.8756405720       52.5598775841       -8.9826863352  W2        7099            0.0000000000
     21298      7100  TIP3      OH2           -21.5494005720       53.0240175841       -6.8667663352  W2        7100            0.0000000000
     21299      7100  TIP3      H1            -21.5707305720       53.2088575841       -5.9278263352  W2        7100            0.0000000000
     21300      7100  TIP3      H2            -20.8587805720       53.5924175841       -7.2076263352  W2        7100            0.0000000000
     21301      7101  TIP3      OH2           -21.9861105720       52.5911275841       -3.9448563352  W2        7101            0.0000000000
     21302      7101  TIP3      H1            -22.4732405720       51.8555375841       -4.3161163352  W2        7101            0.0000000000
     21303      7101  TIP3      H2            -21.4368405720       52.1975175841       -3.2669163352  W2        7101            0.0000000000
     21304      7102  TIP3      OH2           -23.5353805720       48.3809375841        0.6931736648  W2        7102            0.0000000000
     21305      7102  TIP3      H1            -24.4012705720       48.2759075841        1.0874036648  W2        7102            0.0000000000
     21306      7102  TIP3      H2            -23.1587905720       49.1392675841        1.1396436648  W2        7102            0.0000000000
     21307      7103  TIP3      OH2           -22.2344105720       46.6373075841      -13.7925763352  W2        7103            0.0000000000
     21308      7103  TIP3      H1            -21.3842705720       47.0583975841      -13.6654163352  W2        7103            0.0000000000
     21309      7103  TIP3      H2            -22.2289005720       45.8973175841      -13.1854363352  W2        7103            0.0000000000
     21310      7104  TIP3      OH2           -21.8398505720       44.6910475841      -11.9690063352  W2        7104            0.0000000000
     21311      7104  TIP3      H1            -22.5663905720       44.2113075841      -11.5712463352  W2        7104            0.0000000000
     21312      7104  TIP3      H2            -21.2585205720       44.8965175841      -11.2368463352  W2        7104            0.0000000000
     21313      7105  TIP3      OH2           -22.0807305720       47.4757975841       -7.0212463352  W2        7105            0.0000000000
     21314      7105  TIP3      H1            -21.2473105720       47.0977975841       -7.3018863352  W2        7105            0.0000000000
     21315      7105  TIP3      H2            -21.9687005720       48.4189175841       -7.1403363352  W2        7105            0.0000000000
     21316      7106  TIP3      OH2           -23.5945005720       50.3535475841       -4.7144063352  W2        7106            0.0000000000
     21317      7106  TIP3      H1            -24.2419705720       50.6786975841       -4.0888863352  W2        7106            0.0000000000
     21318      7106  TIP3      H2            -24.1121005720       49.9133175841       -5.3885763352  W2        7106            0.0000000000
     21319      7107  TIP3      OH2           -21.5715405720       44.5918975841      -15.5778763352  W2        7107            0.0000000000
     21320      7107  TIP3      H1            -22.0934305720       44.9483075841      -16.2967863352  W2        7107            0.0000000000
     21321      7107  TIP3      H2            -21.6046205720       45.2666775841      -14.8997863352  W2        7107            0.0000000000
     21322      7108  TIP3      OH2           -23.2226405720       41.8314575841      -17.0271663352  W2        7108            0.0000000000
     21323      7108  TIP3      H1            -23.1262005720       42.4981575841      -17.7071963352  W2        7108            0.0000000000
     21324      7108  TIP3      H2            -23.3626805720       41.0160875841      -17.5086163352  W2        7108            0.0000000000
     21325      7109  TIP3      OH2           -24.0531705720       43.2116975841      -11.4061363352  W2        7109            0.0000000000
     21326      7109  TIP3      H1            -24.2032905720       42.2665575841      -11.4263563352  W2        7109            0.0000000000
     21327      7109  TIP3      H2            -24.4067205720       43.4928375841      -10.5622263352  W2        7109            0.0000000000
     21328      7110  TIP3      OH2           -39.0179305720       45.2899175841       -7.3957563352  W2        7110            0.0000000000
     21329      7110  TIP3      H1            -38.8336405720       45.2080875841       -8.3314663352  W2        7110            0.0000000000
     21330      7110  TIP3      H2            -38.1686405720       45.1656175841       -6.9721163352  W2        7110            0.0000000000
     21331      7111  TIP3      OH2           -23.1968805720       45.1820275841       -1.7673063352  W2        7111            0.0000000000
     21332      7111  TIP3      H1            -22.6141505720       44.4472575841       -1.5755863352  W2        7111            0.0000000000
     21333      7111  TIP3      H2            -22.6329505720       45.9540575841       -1.7207263352  W2        7111            0.0000000000
     21334      7112  TIP3      OH2           -21.7001705720       43.0846075841       -1.0827663352  W2        7112            0.0000000000
     21335      7112  TIP3      H1            -22.5635005720       42.7058175841       -1.2482963352  W2        7112            0.0000000000
     21336      7112  TIP3      H2            -21.0958005720       42.3460875841       -1.1571863352  W2        7112            0.0000000000
     21337      7113  TIP3      OH2           -23.9752605720       39.2394375841      -17.9096163352  W2        7113            0.0000000000
     21338      7113  TIP3      H1            -23.3646805720       38.8681175841      -17.2727963352  W2        7113            0.0000000000
     21339      7113  TIP3      H2            -24.8121105720       38.8181275841      -17.7136163352  W2        7113            0.0000000000
     21340      7114  TIP3      OH2           -24.3426905720       40.7942775841      -12.9436263352  W2        7114            0.0000000000
     21341      7114  TIP3      H1            -24.0629805720       39.8873175841      -12.8194563352  W2        7114            0.0000000000
     21342      7114  TIP3      H2            -23.5835205720       41.2284275841      -13.3327063352  W2        7114            0.0000000000
     21343      7115  TIP3      OH2           -23.7308605720       41.3760175841       -7.5077363352  W2        7115            0.0000000000
     21344      7115  TIP3      H1            -22.7980605720       41.5880075841       -7.5421363352  W2        7115            0.0000000000
     21345      7115  TIP3      H2            -23.9661105720       41.4772275841       -6.5854363352  W2        7115            0.0000000000
     21346      7116  TIP3      OH2           -23.7016705720       42.1125475841       -4.7317963352  W2        7116            0.0000000000
     21347      7116  TIP3      H1            -24.5445405720       42.3805875841       -4.3658163352  W2        7116            0.0000000000
     21348      7116  TIP3      H2            -23.2592405720       42.9347375841       -4.9426863352  W2        7116            0.0000000000
     21349      7117  TIP3      OH2           -39.4204505720       40.5604175841       -1.2548763352  W2        7117            0.0000000000
     21350      7117  TIP3      H1            -38.5009605720       40.4382475841       -1.0185663352  W2        7117            0.0000000000
     21351      7117  TIP3      H2            -39.8700005720       39.8103875841       -0.8655263352  W2        7117            0.0000000000
     21352      7118  TIP3      OH2           -21.4185105720       36.0925675841        0.6217036648  W2        7118            0.0000000000
     21353      7118  TIP3      H1            -21.0688105720       35.4389175841        0.0161736648  W2        7118            0.0000000000
     21354      7118  TIP3      H2            -21.2715605720       36.9299775841        0.1819636648  W2        7118            0.0000000000
     21355      7119  TIP3      OH2           -23.7292105720       38.0572075841      -12.8954263352  W2        7119            0.0000000000
     21356      7119  TIP3      H1            -23.5467105720       37.6083575841      -12.0699263352  W2        7119            0.0000000000
     21357      7119  TIP3      H2            -24.3289205720       37.4726475841      -13.3589663352  W2        7119            0.0000000000
     21358      7120  TIP3      OH2           -38.1992005720       38.8725775841       -8.3635863352  W2        7120            0.0000000000
     21359      7120  TIP3      H1            -37.7540405720       38.0808275841       -8.0616163352  W2        7120            0.0000000000
     21360      7120  TIP3      H2            -37.7329005720       39.5890975841       -7.9330263352  W2        7120            0.0000000000
     21361      7121  TIP3      OH2           -39.8951705720       41.8718775841       -7.2945663352  W2        7121            0.0000000000
     21362      7121  TIP3      H1            -39.4031905720       41.6509275841       -8.0853663352  W2        7121            0.0000000000
     21363      7121  TIP3      H2            -39.5330805720       42.7122175841       -7.0136163352  W2        7121            0.0000000000
     21364      7122  TIP3      OH2           -21.8987905720       38.2020275841       -1.0291663352  W2        7122            0.0000000000
     21365      7122  TIP3      H1            -22.8162205720       38.4727375841       -1.0648163352  W2        7122            0.0000000000
     21366      7122  TIP3      H2            -21.7758505720       37.6668675841       -1.8131963352  W2        7122            0.0000000000
     21367      7123  TIP3      OH2           -21.8625905720       38.1250175841      -16.3673963352  W2        7123            0.0000000000
     21368      7123  TIP3      H1            -21.4503305720       37.4035875841      -16.8425963352  W2        7123            0.0000000000
     21369      7123  TIP3      H2            -21.1809405720       38.7944775841      -16.3089663352  W2        7123            0.0000000000
     21370      7124  TIP3      OH2           -39.5815205720       38.1297875841      -13.2403263352  W2        7124            0.0000000000
     21371      7124  TIP3      H1            -40.5066805720       38.3384475841      -13.3697763352  W2        7124            0.0000000000
     21372      7124  TIP3      H2            -39.1275305720       38.6138675841      -13.9300963352  W2        7124            0.0000000000
     21373      7125  TIP3      OH2           -24.8108005720       53.1139575841      -11.2945863352  W2        7125            0.0000000000
     21374      7125  TIP3      H1            -24.1585105720       52.7661675841      -11.9026763352  W2        7125            0.0000000000
     21375      7125  TIP3      H2            -24.3004205720       53.6022775841      -10.6486163352  W2        7125            0.0000000000
     21376      7126  TIP3      OH2           -39.6179805720       36.8676875841       -4.8960763352  W2        7126            0.0000000000
     21377      7126  TIP3      H1            -40.2829305720       36.6217175841       -4.2529863352  W2        7126            0.0000000000
     21378      7126  TIP3      H2            -40.0608505720       37.4897275841       -5.4732763352  W2        7126            0.0000000000
     21379      7127  TIP3      OH2           -37.4260505720       50.0430975841       -0.7514963352  W2        7127            0.0000000000
     21380      7127  TIP3      H1            -38.2468005720       50.2177475841       -1.2120263352  W2        7127            0.0000000000
     21381      7127  TIP3      H2            -37.6782705720       49.9695675841        0.1689436648  W2        7127            0.0000000000
     21382      7128  TIP3      OH2           -34.4717605720       51.0172175841       -4.4930963352  W2        7128            0.0000000000
     21383      7128  TIP3      H1            -34.8966505720       51.8270675841       -4.7756363352  W2        7128            0.0000000000
     21384      7128  TIP3      H2            -33.5674805720       51.1026275841       -4.7951163352  W2        7128            0.0000000000
     21385      7129  TIP3      OH2           -30.1606205720       52.4162175841       -1.5337263352  W2        7129            0.0000000000
     21386      7129  TIP3      H1            -29.9758705720       52.0828275841       -0.6556963352  W2        7129            0.0000000000
     21387      7129  TIP3      H2            -29.3141705720       52.7260775841       -1.8558063352  W2        7129            0.0000000000
     21388      7130  TIP3      OH2           -27.8155805720       53.7021075841       -2.2895863352  W2        7130            0.0000000000
     21389      7130  TIP3      H1            -27.1386905720       53.0693375841       -2.5296663352  W2        7130            0.0000000000
     21390      7130  TIP3      H2            -27.4937005720       54.1031575841       -1.4822563352  W2        7130            0.0000000000
     21391      7131  TIP3      OH2           -22.8982005720       36.2916575841       -3.2100863352  W2        7131            0.0000000000
     21392      7131  TIP3      H1            -23.7108505720       36.6166875841       -3.5976163352  W2        7131            0.0000000000
     21393      7131  TIP3      H2            -22.6653505720       35.5315075841       -3.7431763352  W2        7131            0.0000000000
     21394      7132  TIP3      OH2           -37.0700905720       54.2736075841       -4.4455663352  W2        7132            0.0000000000
     21395      7132  TIP3      H1            -37.7904505720       54.7137075841       -4.8967963352  W2        7132            0.0000000000
     21396      7132  TIP3      H2            -37.4356905720       54.0230775841       -3.5971663352  W2        7132            0.0000000000
     21397      7133  TIP3      OH2           -34.6028305720       53.8739975841       -5.4158463352  W2        7133            0.0000000000
     21398      7133  TIP3      H1            -35.4676105720       53.9458475841       -5.0118363352  W2        7133            0.0000000000
     21399      7133  TIP3      H2            -34.6579305720       54.4207275841       -6.1995963352  W2        7133            0.0000000000
     21400      7134  TIP3      OH2           -29.8922705720       53.7618875841       -6.2402463352  W2        7134            0.0000000000
     21401      7134  TIP3      H1            -30.3488705720       54.2908575841       -6.8944063352  W2        7134            0.0000000000
     21402      7134  TIP3      H2            -29.7294705720       54.3650275841       -5.5150163352  W2        7134            0.0000000000
     21403      7135  TIP3      OH2           -27.5646405720       52.6398475841       -5.2952163352  W2        7135            0.0000000000
     21404      7135  TIP3      H1            -28.4692705720       52.8048675841       -5.5610063352  W2        7135            0.0000000000
     21405      7135  TIP3      H2            -27.1357805720       53.4930675841       -5.3608763352  W2        7135            0.0000000000
     21406      7136  TIP3      OH2           -24.9604505720       54.2097575841       -5.0004363352  W2        7136            0.0000000000
     21407      7136  TIP3      H1            -25.1422505720       55.1256475841       -5.2109463352  W2        7136            0.0000000000
     21408      7136  TIP3      H2            -24.7836705720       53.7994675841       -5.8469763352  W2        7136            0.0000000000
     21409      7137  TIP3      OH2           -37.6552805720       52.8968575841       -7.5353863352  W2        7137            0.0000000000
     21410      7137  TIP3      H1            -37.6736805720       52.4713675841       -6.6781563352  W2        7137            0.0000000000
     21411      7137  TIP3      H2            -36.8504905720       52.5783575841       -7.9441663352  W2        7137            0.0000000000
     21412      7138  TIP3      OH2           -35.5139705720       51.6067275841       -8.8803963352  W2        7138            0.0000000000
     21413      7138  TIP3      H1            -35.7329005720       50.6904675841       -8.7107963352  W2        7138            0.0000000000
     21414      7138  TIP3      H2            -34.6897505720       51.7467675841       -8.4142563352  W2        7138            0.0000000000
     21415      7139  TIP3      OH2           -32.9767205720       52.0766575841       -8.0315963352  W2        7139            0.0000000000
     21416      7139  TIP3      H1            -32.7641505720       51.1885575841       -8.3185063352  W2        7139            0.0000000000
     21417      7139  TIP3      H2            -32.9122105720       52.0424275841       -7.0771963352  W2        7139            0.0000000000
     21418      7140  TIP3      OH2           -29.4683505720       37.7407175841       -8.8872663352  W2        7140            0.0000000000
     21419      7140  TIP3      H1            -30.1426705720       37.1112775841       -8.6316863352  W2        7140            0.0000000000
     21420      7140  TIP3      H2            -28.9044305720       37.2566075841       -9.4904763352  W2        7140            0.0000000000
     21421      7141  TIP3      OH2           -24.3256305720       35.8481175841       -8.7745563352  W2        7141            0.0000000000
     21422      7141  TIP3      H1            -23.7218705720       36.3956575841       -9.2764563352  W2        7141            0.0000000000
     21423      7141  TIP3      H2            -25.1954305720       36.1671575841       -9.0151463352  W2        7141            0.0000000000
     21424      7142  TIP3      OH2           -22.5985905720       36.9869875841      -10.4414663352  W2        7142            0.0000000000
     21425      7142  TIP3      H1            -21.9868405720       36.4725575841      -10.9681063352  W2        7142            0.0000000000
     21426      7142  TIP3      H2            -22.2162505720       37.8641975841      -10.4180263352  W2        7142            0.0000000000
     21427      7143  TIP3      OH2           -37.1416005720       36.3747475841      -11.0652763352  W2        7143            0.0000000000
     21428      7143  TIP3      H1            -37.9186205720       36.1402375841      -11.5726863352  W2        7143            0.0000000000
     21429      7143  TIP3      H2            -36.6112405720       35.5779575841      -11.0564763352  W2        7143            0.0000000000
     21430      7144  TIP3      OH2           -38.3052605720       36.1725575841      -15.2616663352  W2        7144            0.0000000000
     21431      7144  TIP3      H1            -37.8661905720       36.7836075841      -15.8533163352  W2        7144            0.0000000000
     21432      7144  TIP3      H2            -38.9390205720       36.7109675841      -14.7876663352  W2        7144            0.0000000000
     21433      7145  TIP3      OH2           -32.5623405720       36.3014575841      -11.2519663352  W2        7145            0.0000000000
     21434      7145  TIP3      H1            -31.6880005720       36.6898875841      -11.2815363352  W2        7145            0.0000000000
     21435      7145  TIP3      H2            -32.6982605720       36.0862375841      -10.3292463352  W2        7145            0.0000000000
     21436      7146  TIP3      OH2           -27.0055005720       36.3314375841       -9.6027963352  W2        7146            0.0000000000
     21437      7146  TIP3      H1            -26.9293405720       36.4265975841      -10.5521963352  W2        7146            0.0000000000
     21438      7146  TIP3      H2            -27.2805805720       35.4237275841       -9.4738863352  W2        7146            0.0000000000
     21439      7147  TIP3      OH2           -25.6522405720       36.3572175841      -13.9102963352  W2        7147            0.0000000000
     21440      7147  TIP3      H1            -26.3551305720       36.9721375841      -14.1201563352  W2        7147            0.0000000000
     21441      7147  TIP3      H2            -26.0971005720       35.5198875841      -13.7792063352  W2        7147            0.0000000000
     21442      7148  TIP3      OH2           -38.4043105720       52.1207775841      -14.3641563352  W2        7148            0.0000000000
     21443      7148  TIP3      H1            -39.0893205720       52.0826675841      -15.0316463352  W2        7148            0.0000000000
     21444      7148  TIP3      H2            -38.4005905720       53.0335375841      -14.0759463352  W2        7148            0.0000000000
     21445      7149  TIP3      OH2           -36.4443505720       38.0887075841      -16.8192563352  W2        7149            0.0000000000
     21446      7149  TIP3      H1            -35.9530105720       37.4589475841      -17.3467063352  W2        7149            0.0000000000
     21447      7149  TIP3      H2            -35.8207205720       38.3846475841      -16.1561363352  W2        7149            0.0000000000
     21448      7150  TIP3      OH2           -31.4183405720       38.3818575841      -14.3622063352  W2        7150            0.0000000000
     21449      7150  TIP3      H1            -31.2402105720       37.7351775841      -13.6793463352  W2        7150            0.0000000000
     21450      7150  TIP3      H2            -31.4717205720       39.2156275841      -13.8950963352  W2        7150            0.0000000000
     21451      7151  TIP3      OH2           -29.5399605720       53.3302675841      -15.9665363352  W2        7151            0.0000000000
     21452      7151  TIP3      H1            -28.6739405720       53.6970075841      -16.1447163352  W2        7151            0.0000000000
     21453      7151  TIP3      H2            -29.7866805720       52.8910675841      -16.7804563352  W2        7151            0.0000000000
     21454      7152  TIP3      OH2           -22.8310005720       52.8932975841      -13.2874263352  W2        7152            0.0000000000
     21455      7152  TIP3      H1            -23.0252905720       52.1455075841      -13.8524663352  W2        7152            0.0000000000
     21456      7152  TIP3      H2            -22.8699905720       53.6513075841      -13.8706363352  W2        7152            0.0000000000
     21457      7153  TIP3      OH2           -37.1838005720       36.8889375841       -1.5476563352  W2        7153            0.0000000000
     21458      7153  TIP3      H1            -37.5499805720       36.1231975841       -1.1051863352  W2        7153            0.0000000000
     21459      7153  TIP3      H2            -36.2709505720       36.9179575841       -1.2611463352  W2        7153            0.0000000000
     21460      7154  TIP3      OH2           -35.2107205720       36.2393775841       -0.0119463352  W2        7154            0.0000000000
     21461      7154  TIP3      H1            -34.3123605720       35.9653975841       -0.1966063352  W2        7154            0.0000000000
     21462      7154  TIP3      H2            -35.5974105720       35.4969775841        0.4523136648  W2        7154            0.0000000000
     21463      7155  TIP3      OH2           -36.5861905720       53.0408575841      -17.3389463352  W2        7155            0.0000000000
     21464      7155  TIP3      H1            -36.8537305720       53.3271475841      -16.4656363352  W2        7155            0.0000000000
     21465      7155  TIP3      H2            -35.8149305720       52.4947775841      -17.1866963352  W2        7155            0.0000000000
     21466      7156  TIP3      OH2           -26.7894905720       35.5719075841        0.1703336648  W2        7156            0.0000000000
     21467      7156  TIP3      H1            -26.7127705720       35.1459775841        1.0241036648  W2        7156            0.0000000000
     21468      7156  TIP3      H2            -25.8958305720       35.5853775841       -0.1723163352  W2        7156            0.0000000000
     21469      7157  TIP3      OH2           -23.6133805720       51.6445375841       -1.1372463352  W2        7157            0.0000000000
     21470      7157  TIP3      H1            -24.3951905720       51.4583375841       -1.6571863352  W2        7157            0.0000000000
     21471      7157  TIP3      H2            -23.6853905720       52.5739675841       -0.9199963352  W2        7157            0.0000000000
     21472      7158  TIP3      OH2            -9.2073405720       45.5309775841      -11.1065263352  W2        7158            0.0000000000
     21473      7158  TIP3      H1             -9.1182305720       46.4747975841      -11.2388163352  W2        7158            0.0000000000
     21474      7158  TIP3      H2             -9.8455805720       45.2556175841      -11.7645863352  W2        7158            0.0000000000
     21475      7159  TIP3      OH2           -10.2742105720       44.7860475841       -7.6877063352  W2        7159            0.0000000000
     21476      7159  TIP3      H1            -10.3124605720       44.1396775841       -6.9827463352  W2        7159            0.0000000000
     21477      7159  TIP3      H2            -10.5965605720       44.3194875841       -8.4588363352  W2        7159            0.0000000000
     21478      7160  TIP3      OH2           -17.9057105720       44.4002575841       -6.0947163352  W2        7160            0.0000000000
     21479      7160  TIP3      H1            -17.8645005720       43.7745875841       -5.3714763352  W2        7160            0.0000000000
     21480      7160  TIP3      H2            -17.2029405720       45.0241175841       -5.9126763352  W2        7160            0.0000000000
     21481      7161  TIP3      OH2            -6.5681905720       47.7250875841       -9.3861963352  W2        7161            0.0000000000
     21482      7161  TIP3      H1             -7.0089205720       47.0046875841       -8.9356363352  W2        7161            0.0000000000
     21483      7161  TIP3      H2             -6.5812205720       48.4458075841       -8.7564263352  W2        7161            0.0000000000
     21484      7162  TIP3      OH2           -16.9824005720       48.8501475841       -7.5598063352  W2        7162            0.0000000000
     21485      7162  TIP3      H1            -17.3518805720       48.0481975841       -7.9293763352  W2        7162            0.0000000000
     21486      7162  TIP3      H2            -16.0412905720       48.6816375841       -7.5134663352  W2        7162            0.0000000000
     21487      7163  TIP3      OH2           -20.3723505720       42.5104075841      -12.1669263352  W2        7163            0.0000000000
     21488      7163  TIP3      H1            -20.8200105720       43.3562775841      -12.1852763352  W2        7163            0.0000000000
     21489      7163  TIP3      H2            -20.9332305720       41.9308275841      -12.6824163352  W2        7163            0.0000000000
     21490      7164  TIP3      OH2           -19.6617405720       44.6723675841      -10.0411263352  W2        7164            0.0000000000
     21491      7164  TIP3      H1            -19.4483905720       43.9025275841       -9.5138263352  W2        7164            0.0000000000
     21492      7164  TIP3      H2            -18.9239805720       44.7620375841      -10.6443663352  W2        7164            0.0000000000
     21493      7165  TIP3      OH2            -9.4566405720       52.8292575841       -9.1741563352  W2        7165            0.0000000000
     21494      7165  TIP3      H1             -8.8370005720       52.1527275841       -9.4472363352  W2        7165            0.0000000000
     21495      7165  TIP3      H2             -9.6649005720       52.6113375841       -8.2656663352  W2        7165            0.0000000000
     21496      7166  TIP3      OH2           -11.8847705720       47.2181875841       -7.2816063352  W2        7166            0.0000000000
     21497      7166  TIP3      H1            -11.5809805720       46.5323275841       -7.8761963352  W2        7166            0.0000000000
     21498      7166  TIP3      H2            -11.1633705720       47.3370575841       -6.6638063352  W2        7166            0.0000000000
     21499      7167  TIP3      OH2            -3.2217905720       38.8197175841       -6.4209863352  W2        7167            0.0000000000
     21500      7167  TIP3      H1             -3.1725705720       39.4298375841       -5.6850763352  W2        7167            0.0000000000
     21501      7167  TIP3      H2             -2.7962805720       39.2808075841       -7.1438763352  W2        7167            0.0000000000
     21502      7168  TIP3      OH2            -8.7440705720       41.6124275841       -6.9541263352  W2        7168            0.0000000000
     21503      7168  TIP3      H1             -8.6014805720       40.6661275841       -6.9339663352  W2        7168            0.0000000000
     21504      7168  TIP3      H2             -8.8501705720       41.8194075841       -7.8826363352  W2        7168            0.0000000000
     21505      7169  TIP3      OH2           -15.5892405720       39.7140675841       -9.6816463352  W2        7169            0.0000000000
     21506      7169  TIP3      H1            -15.5461305720       40.5739175841      -10.1000163352  W2        7169            0.0000000000
     21507      7169  TIP3      H2            -16.0468305720       39.1615375841      -10.3153263352  W2        7169            0.0000000000
     21508      7170  TIP3      OH2            -7.8669705720       39.8446275841      -11.2808163352  W2        7170            0.0000000000
     21509      7170  TIP3      H1             -7.2205405720       39.5159475841      -10.6560563352  W2        7170            0.0000000000
     21510      7170  TIP3      H2             -7.3570305720       40.3625275841      -11.9036763352  W2        7170            0.0000000000
     21511      7171  TIP3      OH2           -18.9690905720       42.1106475841       -8.9195063352  W2        7171            0.0000000000
     21512      7171  TIP3      H1            -18.3154305720       41.5608175841       -8.4874963352  W2        7171            0.0000000000
     21513      7171  TIP3      H2            -18.9451605720       41.8365475841       -9.8363063352  W2        7171            0.0000000000
     21514      7172  TIP3      OH2           -13.8126405720       43.6607775841       -9.7043563352  W2        7172            0.0000000000
     21515      7172  TIP3      H1            -13.1965405720       43.1343175841       -9.1949563352  W2        7172            0.0000000000
     21516      7172  TIP3      H2            -14.3987605720       43.0206475841      -10.1079963352  W2        7172            0.0000000000
     21517      7173  TIP3      OH2            -2.8303305720       40.2976375841       -4.1850063352  W2        7173            0.0000000000
     21518      7173  TIP3      H1             -3.5188705720       40.9557075841       -4.2803463352  W2        7173            0.0000000000
     21519      7173  TIP3      H2             -2.8148705720       40.1004275841       -3.2484663352  W2        7173            0.0000000000
     21520      7174  TIP3      OH2           -16.7790505720       38.6319075841       -5.6075663352  W2        7174            0.0000000000
     21521      7174  TIP3      H1            -16.9978805720       39.1619675841       -6.3739663352  W2        7174            0.0000000000
     21522      7174  TIP3      H2            -17.4469605720       38.8584575841       -4.9604263352  W2        7174            0.0000000000
     21523      7175  TIP3      OH2            -9.4100705720       48.1320175841      -12.0636563352  W2        7175            0.0000000000
     21524      7175  TIP3      H1             -9.7055605720       47.8092475841      -12.9149663352  W2        7175            0.0000000000
     21525      7175  TIP3      H2             -9.7342905720       49.0316875841      -12.0223963352  W2        7175            0.0000000000
     21526      7176  TIP3      OH2           -14.2099105720       46.3074775841       -5.3201963352  W2        7176            0.0000000000
     21527      7176  TIP3      H1            -14.9500005720       46.9056275841       -5.2166763352  W2        7176            0.0000000000
     21528      7176  TIP3      H2            -13.4959605720       46.8614375841       -5.6358363352  W2        7176            0.0000000000
     21529      7177  TIP3      OH2            -6.1031305720       39.1355575841       -9.3002263352  W2        7177            0.0000000000
     21530      7177  TIP3      H1             -6.3183305720       38.3698975841       -8.7676263352  W2        7177            0.0000000000
     21531      7177  TIP3      H2             -5.4473905720       39.6080175841       -8.7873763352  W2        7177            0.0000000000
     21532      7178  TIP3      OH2           -17.1853205720       40.5240875841       -7.6553463352  W2        7178            0.0000000000
     21533      7178  TIP3      H1            -16.5716905720       41.1568475841       -7.2821063352  W2        7178            0.0000000000
     21534      7178  TIP3      H2            -16.6732505720       40.0515875841       -8.3116563352  W2        7178            0.0000000000
     21535      7179  TIP3      OH2           -15.8024805720       48.2717775841       -4.5330463352  W2        7179            0.0000000000
     21536      7179  TIP3      H1            -15.8077205720       49.1511275841       -4.9111163352  W2        7179            0.0000000000
     21537      7179  TIP3      H2            -16.6560705720       48.1881875841       -4.1080563352  W2        7179            0.0000000000
     21538      7180  TIP3      OH2           -19.6813905720       47.9425675841      -13.7511163352  W2        7180            0.0000000000
     21539      7180  TIP3      H1            -19.9533005720       48.1716675841      -14.6398263352  W2        7180            0.0000000000
     21540      7180  TIP3      H2            -19.6358205720       48.7804475841      -13.2905863352  W2        7180            0.0000000000
     21541      7181  TIP3      OH2            -6.0564205720       49.5641575841       -7.0382663352  W2        7181            0.0000000000
     21542      7181  TIP3      H1             -6.9980505720       49.6225475841       -6.8765763352  W2        7181            0.0000000000
     21543      7181  TIP3      H2             -5.7798105720       50.4702075841       -7.1752963352  W2        7181            0.0000000000
     21544      7182  TIP3      OH2            -5.7557205720       37.8506875841       -5.6208763352  W2        7182            0.0000000000
     21545      7182  TIP3      H1             -6.4918005720       38.4613975841       -5.6587463352  W2        7182            0.0000000000
     21546      7182  TIP3      H2             -5.0723205720       38.2655875841       -6.1472363352  W2        7182            0.0000000000
     21547      7183  TIP3      OH2           -12.7525805720       35.9374175841       -8.1550763352  W2        7183            0.0000000000
     21548      7183  TIP3      H1            -12.8701605720       34.9890175841       -8.2092463352  W2        7183            0.0000000000
     21549      7183  TIP3      H2            -13.6075705720       36.2700275841       -7.8819663352  W2        7183            0.0000000000
     21550      7184  TIP3      OH2            -7.8043005720       51.3455075841      -10.4131063352  W2        7184            0.0000000000
     21551      7184  TIP3      H1             -7.3790705720       50.6382975841      -10.8981463352  W2        7184            0.0000000000
     21552      7184  TIP3      H2             -7.4873005720       52.1467775841      -10.8298863352  W2        7184            0.0000000000
     21553      7185  TIP3      OH2            -6.6446505720       49.2463575841      -11.9044463352  W2        7185            0.0000000000
     21554      7185  TIP3      H1             -6.9021705720       48.5563675841      -12.5158563352  W2        7185            0.0000000000
     21555      7185  TIP3      H2             -6.5735705720       48.8034775841      -11.0588563352  W2        7185            0.0000000000
     21556      7186  TIP3      OH2            -4.9586305720       47.8130275841       -3.4270963352  W2        7186            0.0000000000
     21557      7186  TIP3      H1             -4.8190005720       47.2212775841       -4.1663963352  W2        7186            0.0000000000
     21558      7186  TIP3      H2             -4.7913505720       48.6856175841       -3.7832163352  W2        7186            0.0000000000
     21559      7187  TIP3      OH2           -10.4860905720       44.7749775841      -13.6544963352  W2        7187            0.0000000000
     21560      7187  TIP3      H1            -11.1975405720       45.3099475841      -14.0064463352  W2        7187            0.0000000000
     21561      7187  TIP3      H2             -9.7951305720       44.8301875841      -14.3146063352  W2        7187            0.0000000000
     21562      7188  TIP3      OH2           -10.4321705720       43.2324075841      -16.6159963352  W2        7188            0.0000000000
     21563      7188  TIP3      H1             -9.7311805720       43.2550975841      -15.9645963352  W2        7188            0.0000000000
     21564      7188  TIP3      H2            -10.1298805720       42.6043775841      -17.2720663352  W2        7188            0.0000000000
     21565      7189  TIP3      OH2            -3.1167005720       44.1528275841       -5.3610563352  W2        7189            0.0000000000
     21566      7189  TIP3      H1             -3.7692905720       44.8473875841       -5.2719663352  W2        7189            0.0000000000
     21567      7189  TIP3      H2             -2.6516705720       44.3629175841       -6.1708963352  W2        7189            0.0000000000
     21568      7190  TIP3      OH2            -7.0803205720       44.9843075841      -12.7029063352  W2        7190            0.0000000000
     21569      7190  TIP3      H1             -7.8122205720       45.2126775841      -12.1298463352  W2        7190            0.0000000000
     21570      7190  TIP3      H2             -6.6331005720       44.2705775841      -12.2481563352  W2        7190            0.0000000000
     21571      7191  TIP3      OH2            -7.1829705720       43.1585675841       -3.6352063352  W2        7191            0.0000000000
     21572      7191  TIP3      H1             -7.1030605720       43.9220075841       -3.0633563352  W2        7191            0.0000000000
     21573      7191  TIP3      H2             -7.7842005720       43.4378075841       -4.3256963352  W2        7191            0.0000000000
     21574      7192  TIP3      OH2           -15.4349505720       45.6149275841      -10.8204063352  W2        7192            0.0000000000
     21575      7192  TIP3      H1            -15.7654305720       45.2442675841      -11.6387063352  W2        7192            0.0000000000
     21576      7192  TIP3      H2            -14.8465405720       44.9443275841      -10.4735763352  W2        7192            0.0000000000
     21577      7193  TIP3      OH2           -14.0682005720       49.0429875841       -8.1391863352  W2        7193            0.0000000000
     21578      7193  TIP3      H1            -14.1630705720       48.4642975841       -8.8957263352  W2        7193            0.0000000000
     21579      7193  TIP3      H2            -13.3388405720       48.6715575841       -7.6429063352  W2        7193            0.0000000000
     21580      7194  TIP3      OH2           -15.0684005720       44.3834875841       -7.1869063352  W2        7194            0.0000000000
     21581      7194  TIP3      H1            -14.5031505720       44.5049075841       -7.9497863352  W2        7194            0.0000000000
     21582      7194  TIP3      H2            -14.7495105720       45.0209875841       -6.5480563352  W2        7194            0.0000000000
     21583      7195  TIP3      OH2            -8.7591805720       49.8866775841       -6.4528563352  W2        7195            0.0000000000
     21584      7195  TIP3      H1             -8.9995205720       50.5489875841       -5.8049363352  W2        7195            0.0000000000
     21585      7195  TIP3      H2             -8.9573605720       49.0521975841       -6.0278963352  W2        7195            0.0000000000
     21586      7196  TIP3      OH2           -14.1883305720       48.7827575841       -2.4697163352  W2        7196            0.0000000000
     21587      7196  TIP3      H1            -14.4995805720       49.5650775841       -2.0143963352  W2        7196            0.0000000000
     21588      7196  TIP3      H2            -14.8383105720       48.6296675841       -3.1555163352  W2        7196            0.0000000000
     21589      7197  TIP3      OH2            -8.2093705720       44.1465975841      -15.0177863352  W2        7197            0.0000000000
     21590      7197  TIP3      H1             -7.6298205720       44.2966275841      -14.2708963352  W2        7197            0.0000000000
     21591      7197  TIP3      H2             -7.7953705720       44.6173375841      -15.7411463352  W2        7197            0.0000000000
     21592      7198  TIP3      OH2           -17.2683405720       44.9808675841       -3.2411463352  W2        7198            0.0000000000
     21593      7198  TIP3      H1            -17.1980205720       45.6315475841       -2.5426463352  W2        7198            0.0000000000
     21594      7198  TIP3      H2            -18.1591205720       45.0836175841       -3.5760563352  W2        7198            0.0000000000
     21595      7199  TIP3      OH2           -10.4828805720       50.8834475841      -11.5824763352  W2        7199            0.0000000000
     21596      7199  TIP3      H1            -10.0091205720       51.1790775841      -10.8050563352  W2        7199            0.0000000000
     21597      7199  TIP3      H2            -11.0459505720       51.6216075841      -11.8155163352  W2        7199            0.0000000000
     21598      7200  TIP3      OH2           -15.9487405720       50.8542575841       -1.7063363352  W2        7200            0.0000000000
     21599      7200  TIP3      H1            -15.9412105720       50.7182275841       -2.6537863352  W2        7200            0.0000000000
     21600      7200  TIP3      H2            -16.8647005720       50.7370675841       -1.4543363352  W2        7200            0.0000000000
     21601      7201  TIP3      OH2            -4.5105305720       35.8966375841      -15.2048163352  W2        7201            0.0000000000
     21602      7201  TIP3      H1             -5.4104605720       36.0355375841      -14.9097563352  W2        7201            0.0000000000
     21603      7201  TIP3      H2             -4.2586905720       36.7280975841      -15.6066463352  W2        7201            0.0000000000
     21604      7202  TIP3      OH2           -16.4446805720       44.6843575841      -13.2311263352  W2        7202            0.0000000000
     21605      7202  TIP3      H1            -16.7365505720       45.4525275841      -13.7219963352  W2        7202            0.0000000000
     21606      7202  TIP3      H2            -17.1191605720       44.0249775841      -13.3939863352  W2        7202            0.0000000000
     21607      7203  TIP3      OH2            -3.3213905720       50.2628775841      -16.8284263352  W2        7203            0.0000000000
     21608      7203  TIP3      H1             -3.2480405720       51.2018975841      -16.6578963352  W2        7203            0.0000000000
     21609      7203  TIP3      H2             -2.4158805720       49.9577375841      -16.8846963352  W2        7203            0.0000000000
     21610      7204  TIP3      OH2           -20.3516705720       47.0472775841       -4.4161463352  W2        7204            0.0000000000
     21611      7204  TIP3      H1            -20.8528305720       47.0192175841       -5.2311763352  W2        7204            0.0000000000
     21612      7204  TIP3      H2            -20.3463005720       46.1415975841       -4.1064163352  W2        7204            0.0000000000
     21613      7205  TIP3      OH2           -20.6014005720       49.8276575841       -7.5321263352  W2        7205            0.0000000000
     21614      7205  TIP3      H1            -19.6553405720       49.6833575841       -7.5511763352  W2        7205            0.0000000000
     21615      7205  TIP3      H2            -20.7137705720       50.6119375841       -6.9950063352  W2        7205            0.0000000000
     21616      7206  TIP3      OH2            -2.4035505720       50.4936275841       -1.8497563352  W2        7206            0.0000000000
     21617      7206  TIP3      H1             -2.4528705720       49.5384375841       -1.8869963352  W2        7206            0.0000000000
     21618      7206  TIP3      H2             -3.2303205720       50.7611575841       -1.4483763352  W2        7206            0.0000000000
     21619      7207  TIP3      OH2           -11.4251505720       50.0675475841       -2.9736163352  W2        7207            0.0000000000
     21620      7207  TIP3      H1            -11.3376905720       50.8940075841       -2.4987063352  W2        7207            0.0000000000
     21621      7207  TIP3      H2            -12.2886405720       49.7379275841       -2.7246863352  W2        7207            0.0000000000
     21622      7208  TIP3      OH2           -11.0105705720       53.8399175841      -13.1675563352  W2        7208            0.0000000000
     21623      7208  TIP3      H1            -11.0859705720       53.7186375841      -14.1140363352  W2        7208            0.0000000000
     21624      7208  TIP3      H2            -10.9777005720       54.7891875841      -13.0490963352  W2        7208            0.0000000000
     21625      7209  TIP3      OH2           -17.3571905720       52.6286175841      -11.3866563352  W2        7209            0.0000000000
     21626      7209  TIP3      H1            -17.2051505720       52.2806575841      -10.5080063352  W2        7209            0.0000000000
     21627      7209  TIP3      H2            -18.2081505720       52.2723475841      -11.6419363352  W2        7209            0.0000000000
     21628      7210  TIP3      OH2            -7.9089705720       52.9939375841      -16.1653163352  W2        7210            0.0000000000
     21629      7210  TIP3      H1             -7.5341305720       52.2495475841      -16.6360563352  W2        7210            0.0000000000
     21630      7210  TIP3      H2             -7.9046005720       52.7239975841      -15.2469863352  W2        7210            0.0000000000
     21631      7211  TIP3      OH2            -8.2401605720       52.9196475841      -13.4160963352  W2        7211            0.0000000000
     21632      7211  TIP3      H1             -9.1751805720       53.0198375841      -13.2373963352  W2        7211            0.0000000000
     21633      7211  TIP3      H2             -7.9599705720       52.2102475841      -12.8377763352  W2        7211            0.0000000000
     21634      7212  TIP3      OH2            -5.2515705720       41.9868775841       -1.3695363352  W2        7212            0.0000000000
     21635      7212  TIP3      H1             -5.6588905720       42.4674375841       -2.0902063352  W2        7212            0.0000000000
     21636      7212  TIP3      H2             -5.2110005720       41.0814775841       -1.6774563352  W2        7212            0.0000000000
     21637      7213  TIP3      OH2           -18.1026205720       48.3708175841       -3.3728663352  W2        7213            0.0000000000
     21638      7213  TIP3      H1            -17.8864905720       48.0093775841       -2.5132863352  W2        7213            0.0000000000
     21639      7213  TIP3      H2            -18.9581505720       47.9961975841       -3.5825163352  W2        7213            0.0000000000
     21640      7214  TIP3      OH2           -15.4838205720       36.8408675841       -7.3774463352  W2        7214            0.0000000000
     21641      7214  TIP3      H1            -16.3454505720       36.7536875841       -7.7851563352  W2        7214            0.0000000000
     21642      7214  TIP3      H2            -15.5062505720       37.6968775841       -6.9496863352  W2        7214            0.0000000000
     21643      7215  TIP3      OH2           -10.8210405720       36.5629075841       -4.0027463352  W2        7215            0.0000000000
     21644      7215  TIP3      H1            -10.4007305720       36.1476175841       -3.2496863352  W2        7215            0.0000000000
     21645      7215  TIP3      H2            -11.7540805720       36.3842375841       -3.8855463352  W2        7215            0.0000000000
     21646      7216  TIP3      OH2            -7.4945505720       40.3184275841       -3.1492963352  W2        7216            0.0000000000
     21647      7216  TIP3      H1             -8.0086005720       40.1926475841       -2.3516963352  W2        7216            0.0000000000
     21648      7216  TIP3      H2             -7.6500805720       41.2307375841       -3.3936763352  W2        7216            0.0000000000
     21649      7217  TIP3      OH2            -6.7320605720       45.1794275841      -17.3879963352  W2        7217            0.0000000000
     21650      7217  TIP3      H1             -6.6899805720       44.9568175841      -18.3179963352  W2        7217            0.0000000000
     21651      7217  TIP3      H2             -5.8828505720       45.5781375841      -17.1980063352  W2        7217            0.0000000000
     21652      7218  TIP3      OH2           -11.1593105720       39.0552475841      -16.7176663352  W2        7218            0.0000000000
     21653      7218  TIP3      H1            -11.4128305720       39.0744075841      -15.7948563352  W2        7218            0.0000000000
     21654      7218  TIP3      H2            -11.4161005720       38.1837875841      -17.0190463352  W2        7218            0.0000000000
     21655      7219  TIP3      OH2           -15.3928105720       41.8063175841       -6.2824263352  W2        7219            0.0000000000
     21656      7219  TIP3      H1            -16.0346005720       41.7660475841       -5.5734163352  W2        7219            0.0000000000
     21657      7219  TIP3      H2            -15.3556105720       42.7327875841       -6.5201263352  W2        7219            0.0000000000
     21658      7220  TIP3      OH2           -15.3959005720       42.0273275841      -11.3704263352  W2        7220            0.0000000000
     21659      7220  TIP3      H1            -16.2886105720       41.6869375841      -11.4290463352  W2        7220            0.0000000000
     21660      7220  TIP3      H2            -14.9452405720       41.6504175841      -12.1261063352  W2        7220            0.0000000000
     21661      7221  TIP3      OH2            -9.8603505720       42.4433575841      -12.5533463352  W2        7221            0.0000000000
     21662      7221  TIP3      H1            -10.2693205720       43.2582175841      -12.8448663352  W2        7221            0.0000000000
     21663      7221  TIP3      H2             -9.1397305720       42.3033675841      -13.1676363352  W2        7221            0.0000000000
     21664      7222  TIP3      OH2           -10.7581905720       42.6189975841       -1.0652763352  W2        7222            0.0000000000
     21665      7222  TIP3      H1            -11.3208105720       41.9141575841       -0.7444963352  W2        7222            0.0000000000
     21666      7222  TIP3      H2             -9.9318505720       42.4981875841       -0.5975163352  W2        7222            0.0000000000
     21667      7223  TIP3      OH2            -8.8555805720       41.8893975841       -9.7393763352  W2        7223            0.0000000000
     21668      7223  TIP3      H1             -9.0511305720       42.4950775841      -10.4543163352  W2        7223            0.0000000000
     21669      7223  TIP3      H2             -8.6743205720       41.0559175841      -10.1737463352  W2        7223            0.0000000000
     21670      7224  TIP3      OH2           -17.6427605720       42.1266675841       -4.4152263352  W2        7224            0.0000000000
     21671      7224  TIP3      H1            -17.6808205720       42.5268275841       -3.5465163352  W2        7224            0.0000000000
     21672      7224  TIP3      H2            -18.1336505720       41.3099075841       -4.3249363352  W2        7224            0.0000000000
     21673      7225  TIP3      OH2           -14.2770205720       39.5008975841      -17.6166263352  W2        7225            0.0000000000
     21674      7225  TIP3      H1            -14.7079505720       39.0559075841      -16.8868863352  W2        7225            0.0000000000
     21675      7225  TIP3      H2            -14.9951505720       39.8725275841      -18.1288763352  W2        7225            0.0000000000
     21676      7226  TIP3      OH2           -21.0346805720       39.2428475841      -10.5647563352  W2        7226            0.0000000000
     21677      7226  TIP3      H1            -20.4039105720       39.2140575841       -9.8453663352  W2        7226            0.0000000000
     21678      7226  TIP3      H2            -20.5852505720       38.8177175841      -11.2951663352  W2        7226            0.0000000000
     21679      7227  TIP3      OH2           -19.7604705720       39.9890475841      -15.1407163352  W2        7227            0.0000000000
     21680      7227  TIP3      H1            -19.2863005720       40.5800375841      -15.7256263352  W2        7227            0.0000000000
     21681      7227  TIP3      H2            -20.4778305720       40.5193375841      -14.7937063352  W2        7227            0.0000000000
     21682      7228  TIP3      OH2            -9.5916605720       43.5275275841       -5.0681363352  W2        7228            0.0000000000
     21683      7228  TIP3      H1             -9.2681805720       42.8964975841       -5.7110863352  W2        7228            0.0000000000
     21684      7228  TIP3      H2            -10.0317305720       42.9927475841       -4.4073963352  W2        7228            0.0000000000
     21685      7229  TIP3      OH2           -12.8143705720       39.4550775841      -10.2840163352  W2        7229            0.0000000000
     21686      7229  TIP3      H1            -13.7252605720       39.5117575841       -9.9954163352  W2        7229            0.0000000000
     21687      7229  TIP3      H2            -12.3090805720       39.3946275841       -9.4732963352  W2        7229            0.0000000000
     21688      7230  TIP3      OH2           -17.9860305720       41.0837075841      -11.4572563352  W2        7230            0.0000000000
     21689      7230  TIP3      H1            -18.8752305720       41.1832575841      -11.7972963352  W2        7230            0.0000000000
     21690      7230  TIP3      H2            -17.6895405720       40.2420075841      -11.8034663352  W2        7230            0.0000000000
     21691      7231  TIP3      OH2           -14.3328505720       41.0839675841      -13.8007963352  W2        7231            0.0000000000
     21692      7231  TIP3      H1            -13.4013005720       41.2129675841      -13.6224863352  W2        7231            0.0000000000
     21693      7231  TIP3      H2            -14.5478205720       41.7533975841      -14.4503263352  W2        7231            0.0000000000
     21694      7232  TIP3      OH2            -8.4091805720       38.6897075841       -7.0198363352  W2        7232            0.0000000000
     21695      7232  TIP3      H1             -9.0860205720       38.8210175841       -6.3558663352  W2        7232            0.0000000000
     21696      7232  TIP3      H2             -8.8946905720       38.5346575841       -7.8300663352  W2        7232            0.0000000000
     21697      7233  TIP3      OH2           -15.6588305720       42.2781875841      -16.2341863352  W2        7233            0.0000000000
     21698      7233  TIP3      H1            -16.2013205720       41.8985675841      -16.9254263352  W2        7233            0.0000000000
     21699      7233  TIP3      H2            -14.8253405720       42.4726575841      -16.6627763352  W2        7233            0.0000000000
     21700      7234  TIP3      OH2            -5.1216705720       54.3612475841       -0.7430763352  W2        7234            0.0000000000
     21701      7234  TIP3      H1             -4.9218005720       54.7854375841       -1.5775463352  W2        7234            0.0000000000
     21702      7234  TIP3      H2             -4.4663005720       54.7050675841       -0.1360363352  W2        7234            0.0000000000
     21703      7235  TIP3      OH2           -17.5236905720       46.8353775841       -1.1350263352  W2        7235            0.0000000000
     21704      7235  TIP3      H1            -16.7914505720       47.0899675841       -0.5735763352  W2        7235            0.0000000000
     21705      7235  TIP3      H2            -18.3038205720       47.0399175841       -0.6194863352  W2        7235            0.0000000000
     21706      7236  TIP3      OH2           -11.4944005720       42.2423775841       -8.3970563352  W2        7236            0.0000000000
     21707      7236  TIP3      H1            -10.9300605720       41.6960375841       -8.9440963352  W2        7236            0.0000000000
     21708      7236  TIP3      H2            -11.6420605720       41.7205675841       -7.6082963352  W2        7236            0.0000000000
     21709      7237  TIP3      OH2           -16.4924305720       38.3789875841      -11.9785763352  W2        7237            0.0000000000
     21710      7237  TIP3      H1            -16.8094805720       37.4765175841      -12.0140363352  W2        7237            0.0000000000
     21711      7237  TIP3      H2            -15.7110205720       38.3807275841      -12.5314163352  W2        7237            0.0000000000
     21712      7238  TIP3      OH2           -12.8678105720       40.6309875841       -5.9830163352  W2        7238            0.0000000000
     21713      7238  TIP3      H1            -13.7032805720       41.0849375841       -5.8727763352  W2        7238            0.0000000000
     21714      7238  TIP3      H2            -12.3437505720       40.9068375841       -5.2310263352  W2        7238            0.0000000000
     21715      7239  TIP3      OH2           -12.3235505720       46.8437575841      -14.2983763352  W2        7239            0.0000000000
     21716      7239  TIP3      H1            -13.0684505720       46.3362875841      -14.6205863352  W2        7239            0.0000000000
     21717      7239  TIP3      H2            -12.4578305720       46.8925575841      -13.3518963352  W2        7239            0.0000000000
     21718      7240  TIP3      OH2            -5.1736605720       45.9765775841       -5.5116163352  W2        7240            0.0000000000
     21719      7240  TIP3      H1             -4.5317805720       46.4332075841       -6.0553963352  W2        7240            0.0000000000
     21720      7240  TIP3      H2             -6.0039705720       46.0898175841       -5.9742063352  W2        7240            0.0000000000
     21721      7241  TIP3      OH2            -8.4258705720       39.6577475841      -16.0991163352  W2        7241            0.0000000000
     21722      7241  TIP3      H1             -9.3644505720       39.7693075841      -16.2502363352  W2        7241            0.0000000000
     21723      7241  TIP3      H2             -8.1286605720       40.5144375841      -15.7925463352  W2        7241            0.0000000000
     21724      7242  TIP3      OH2           -10.8043405720       47.0280875841       -3.0614663352  W2        7242            0.0000000000
     21725      7242  TIP3      H1            -11.1497305720       46.6463275841       -2.2545063352  W2        7242            0.0000000000
     21726      7242  TIP3      H2            -11.0043305720       47.9614475841       -2.9901763352  W2        7242            0.0000000000
     21727      7243  TIP3      OH2            -7.7075205720       41.5250175841      -14.4383763352  W2        7243            0.0000000000
     21728      7243  TIP3      H1             -6.8156205720       41.3875175841      -14.1192563352  W2        7243            0.0000000000
     21729      7243  TIP3      H2             -7.6511605720       42.3156275841      -14.9750263352  W2        7243            0.0000000000
     21730      7244  TIP3      OH2           -17.1987205720       46.1387575841       -8.5285863352  W2        7244            0.0000000000
     21731      7244  TIP3      H1            -16.4540005720       46.1363275841       -9.1299363352  W2        7244            0.0000000000
     21732      7244  TIP3      H2            -17.1210605720       45.3151375841       -8.0470763352  W2        7244            0.0000000000
     21733      7245  TIP3      OH2           -10.1981405720       48.3021875841      -15.2729163352  W2        7245            0.0000000000
     21734      7245  TIP3      H1            -10.4933005720       49.1289775841      -14.8914363352  W2        7245            0.0000000000
     21735      7245  TIP3      H2            -10.9011405720       47.6828775841      -15.0767763352  W2        7245            0.0000000000
     21736      7246  TIP3      OH2           -20.1907505720       44.5994475841       -3.2137363352  W2        7246            0.0000000000
     21737      7246  TIP3      H1            -19.9678905720       44.1814075841       -2.3819863352  W2        7246            0.0000000000
     21738      7246  TIP3      H2            -20.7927405720       43.9869475841       -3.6364563352  W2        7246            0.0000000000
     21739      7247  TIP3      OH2           -13.1742605720       44.1164375841       -1.0007663352  W2        7247            0.0000000000
     21740      7247  TIP3      H1            -13.4701805720       43.9507375841       -1.8958563352  W2        7247            0.0000000000
     21741      7247  TIP3      H2            -12.2427405720       43.8964675841       -1.0113763352  W2        7247            0.0000000000
     21742      7248  TIP3      OH2            -8.5539805720       49.4896375841       -3.1109663352  W2        7248            0.0000000000
     21743      7248  TIP3      H1             -9.4545505720       49.6728975841       -3.3785763352  W2        7248            0.0000000000
     21744      7248  TIP3      H2             -8.5198705720       49.7485675841       -2.1900863352  W2        7248            0.0000000000
     21745      7249  TIP3      OH2            -2.8226505720       41.7344275841      -14.7437063352  W2        7249            0.0000000000
     21746      7249  TIP3      H1             -3.3770205720       41.3382275841      -15.4159563352  W2        7249            0.0000000000
     21747      7249  TIP3      H2             -2.7222905720       42.6449475841      -15.0213763352  W2        7249            0.0000000000
     21748      7250  TIP3      OH2            -2.8594505720       47.5345975841       -1.9065563352  W2        7250            0.0000000000
     21749      7250  TIP3      H1             -3.7106005720       47.7729775841       -2.2739163352  W2        7250            0.0000000000
     21750      7250  TIP3      H2             -2.2691105720       47.5179175841       -2.6598463352  W2        7250            0.0000000000
     21751      7251  TIP3      OH2            -4.5274805720       50.5204675841      -14.2784963352  W2        7251            0.0000000000
     21752      7251  TIP3      H1             -4.9003705720       49.6948475841      -13.9694363352  W2        7251            0.0000000000
     21753      7251  TIP3      H2             -4.2501305720       50.3374075841      -15.1761563352  W2        7251            0.0000000000
     21754      7252  TIP3      OH2            -7.3670905720       45.3284175841       -7.2573063352  W2        7252            0.0000000000
     21755      7252  TIP3      H1             -8.2954005720       45.0966075841       -7.2843763352  W2        7252            0.0000000000
     21756      7252  TIP3      H2             -6.9159805720       44.5513975841       -7.5874263352  W2        7252            0.0000000000
     21757      7253  TIP3      OH2           -14.8237805720       49.6565775841      -11.1244363352  W2        7253            0.0000000000
     21758      7253  TIP3      H1            -14.2965605720       50.4300175841      -11.3245563352  W2        7253            0.0000000000
     21759      7253  TIP3      H2            -15.7039305720       49.8814975841      -11.4260363352  W2        7253            0.0000000000
     21760      7254  TIP3      OH2           -19.0690105720       44.5189875841      -16.5371963352  W2        7254            0.0000000000
     21761      7254  TIP3      H1            -18.4530205720       45.1457075841      -16.1577163352  W2        7254            0.0000000000
     21762      7254  TIP3      H2            -19.9307505720       44.8349675841      -16.2655463352  W2        7254            0.0000000000
     21763      7255  TIP3      OH2           -13.3965505720       47.3195675841      -11.5480063352  W2        7255            0.0000000000
     21764      7255  TIP3      H1            -13.6375505720       48.2450075841      -11.5064763352  W2        7255            0.0000000000
     21765      7255  TIP3      H2            -14.1371905720       46.8606975841      -11.1516163352  W2        7255            0.0000000000
     21766      7256  TIP3      OH2           -12.8818905720       51.4689275841       -5.2328963352  W2        7256            0.0000000000
     21767      7256  TIP3      H1            -12.5194205720       52.3234875841       -5.4664563352  W2        7256            0.0000000000
     21768      7256  TIP3      H2            -12.3503705720       51.1770875841       -4.4922663352  W2        7256            0.0000000000
     21769      7257  TIP3      OH2           -14.7134705720       52.3413275841      -12.0027863352  W2        7257            0.0000000000
     21770      7257  TIP3      H1            -15.6634205720       52.4470675841      -11.9514563352  W2        7257            0.0000000000
     21771      7257  TIP3      H2            -14.3616605720       53.1620675841      -11.6580363352  W2        7257            0.0000000000
     21772      7258  TIP3      OH2            -9.3378105720       47.5679975841       -5.5323363352  W2        7258            0.0000000000
     21773      7258  TIP3      H1             -9.7636805720       47.3401675841       -4.7059363352  W2        7258            0.0000000000
     21774      7258  TIP3      H2             -8.7572305720       46.8291775841       -5.7148063352  W2        7258            0.0000000000
     21775      7259  TIP3      OH2            -7.1349205720       48.4970475841      -16.4584363352  W2        7259            0.0000000000
     21776      7259  TIP3      H1             -6.7816105720       48.1170275841      -15.6540863352  W2        7259            0.0000000000
     21777      7259  TIP3      H2             -8.0835705720       48.4035275841      -16.3715063352  W2        7259            0.0000000000
     21778      7260  TIP3      OH2            -6.6793905720       52.1199475841       -3.0628563352  W2        7260            0.0000000000
     21779      7260  TIP3      H1             -7.2810705720       51.5642375841       -3.5582263352  W2        7260            0.0000000000
     21780      7260  TIP3      H2             -6.3980205720       52.7869275841       -3.6891163352  W2        7260            0.0000000000
     21781      7261  TIP3      OH2            -2.6314805720       52.9762975841      -16.2574163352  W2        7261            0.0000000000
     21782      7261  TIP3      H1             -1.8876905720       53.5623475841      -16.3972563352  W2        7261            0.0000000000
     21783      7261  TIP3      H2             -3.3256705720       53.5448775841      -15.9241763352  W2        7261            0.0000000000
     21784      7262  TIP3      OH2           -18.5568005720       39.3527175841       -3.6555963352  W2        7262            0.0000000000
     21785      7262  TIP3      H1            -19.4495705720       39.6912575841       -3.7231963352  W2        7262            0.0000000000
     21786      7262  TIP3      H2            -18.6555205720       38.4973275841       -3.2375163352  W2        7262            0.0000000000
     21787      7263  TIP3      OH2            -6.2689905720       47.1692475841      -14.2316463352  W2        7263            0.0000000000
     21788      7263  TIP3      H1             -6.5462305720       46.4411775841      -13.6755363352  W2        7263            0.0000000000
     21789      7263  TIP3      H2             -5.3416905720       47.2884475841      -14.0263863352  W2        7263            0.0000000000
     21790      7264  TIP3      OH2           -18.9056005720       51.1571575841       -5.2206563352  W2        7264            0.0000000000
     21791      7264  TIP3      H1            -18.6885705720       50.2253975841       -5.2516863352  W2        7264            0.0000000000
     21792      7264  TIP3      H2            -18.6592505720       51.4316575841       -4.3373763352  W2        7264            0.0000000000
     21793      7265  TIP3      OH2           -13.0441405720       49.6086575841      -18.0114363352  W2        7265            0.0000000000
     21794      7265  TIP3      H1            -12.8051605720       48.8604675841      -18.5585463352  W2        7265            0.0000000000
     21795      7265  TIP3      H2            -13.3130105720       49.2208275841      -17.1786563352  W2        7265            0.0000000000
     21796      7266  TIP3      OH2           -14.1070805720       49.1790375841      -15.5551763352  W2        7266            0.0000000000
     21797      7266  TIP3      H1            -13.9602805720       48.6590175841      -14.7650863352  W2        7266            0.0000000000
     21798      7266  TIP3      H2            -14.1099105720       50.0857975841      -15.2485863352  W2        7266            0.0000000000
     21799      7267  TIP3      OH2           -17.6539705720       46.4313675841      -15.0446363352  W2        7267            0.0000000000
     21800      7267  TIP3      H1            -18.3400405720       46.7836175841      -14.4776663352  W2        7267            0.0000000000
     21801      7267  TIP3      H2            -17.1311805720       47.1943275841      -15.2912063352  W2        7267            0.0000000000
     21802      7268  TIP3      OH2            -9.8224605720       39.0937475841       -4.7657363352  W2        7268            0.0000000000
     21803      7268  TIP3      H1             -9.1236705720       39.1676175841       -4.1157663352  W2        7268            0.0000000000
     21804      7268  TIP3      H2            -10.2033205720       38.2292475841       -4.6114463352  W2        7268            0.0000000000
     21805      7269  TIP3      OH2            -9.0379705720       38.7459175841      -13.6685063352  W2        7269            0.0000000000
     21806      7269  TIP3      H1             -8.8181405720       39.2174575841      -14.4719663352  W2        7269            0.0000000000
     21807      7269  TIP3      H2             -8.4795705720       39.1401775841      -12.9984463352  W2        7269            0.0000000000
     21808      7270  TIP3      OH2           -11.3693605720       50.8763975841      -14.8057563352  W2        7270            0.0000000000
     21809      7270  TIP3      H1            -12.1857505720       51.3733675841      -14.7533263352  W2        7270            0.0000000000
     21810      7270  TIP3      H2            -10.8397305720       51.3517475841      -15.4458763352  W2        7270            0.0000000000
     21811      7271  TIP3      OH2           -11.8379805720       40.4737975841      -12.8336663352  W2        7271            0.0000000000
     21812      7271  TIP3      H1            -11.0257205720       40.9781175841      -12.7874963352  W2        7271            0.0000000000
     21813      7271  TIP3      H2            -12.0826805720       40.3287675841      -11.9197063352  W2        7271            0.0000000000
     21814      7272  TIP3      OH2           -11.3023405720       41.4600675841       -3.6490063352  W2        7272            0.0000000000
     21815      7272  TIP3      H1            -11.1833105720       42.0336075841       -2.8919663352  W2        7272            0.0000000000
     21816      7272  TIP3      H2            -10.6468805720       40.7720075841       -3.5342263352  W2        7272            0.0000000000
     21817      7273  TIP3      OH2           -10.9543105720       37.5550975841      -11.8955563352  W2        7273            0.0000000000
     21818      7273  TIP3      H1            -11.3009605720       38.1721575841      -11.2511263352  W2        7273            0.0000000000
     21819      7273  TIP3      H2            -10.2956205720       38.0556675841      -12.3770063352  W2        7273            0.0000000000
     21820      7274  TIP3      OH2           -14.0310505720       51.9201175841      -14.8240663352  W2        7274            0.0000000000
     21821      7274  TIP3      H1            -13.8701805720       52.7198675841      -15.3248063352  W2        7274            0.0000000000
     21822      7274  TIP3      H2            -14.2282705720       52.2267175841      -13.9390063352  W2        7274            0.0000000000
     21823      7275  TIP3      OH2           -15.2966105720       38.6180375841      -15.2083063352  W2        7275            0.0000000000
     21824      7275  TIP3      H1            -15.3801305720       39.5063475841      -14.8616663352  W2        7275            0.0000000000
     21825      7275  TIP3      H2            -14.4065805720       38.3527075841      -14.9766263352  W2        7275            0.0000000000
     21826      7276  TIP3      OH2            -5.0977605720       39.3670975841       -2.8140363352  W2        7276            0.0000000000
     21827      7276  TIP3      H1             -6.0141805720       39.6292675841       -2.9016663352  W2        7276            0.0000000000
     21828      7276  TIP3      H2             -4.7622605720       39.3639975841       -3.7105063352  W2        7276            0.0000000000
     21829      7277  TIP3      OH2            -6.4956605720       43.1171975841       -8.7183063352  W2        7277            0.0000000000
     21830      7277  TIP3      H1             -7.2932205720       42.7022175841       -9.0468063352  W2        7277            0.0000000000
     21831      7277  TIP3      H2             -6.0505505720       42.4265675841       -8.2272563352  W2        7277            0.0000000000
     21832      7278  TIP3      OH2           -17.0380805720       49.0452575841      -16.1478563352  W2        7278            0.0000000000
     21833      7278  TIP3      H1            -16.4459305720       49.7447375841      -15.8716163352  W2        7278            0.0000000000
     21834      7278  TIP3      H2            -16.5787805720       48.6122075841      -16.8673963352  W2        7278            0.0000000000
     21835      7279  TIP3      OH2           -18.7221605720       41.7095575841      -17.0319163352  W2        7279            0.0000000000
     21836      7279  TIP3      H1            -18.7669005720       42.6488675841      -16.8532163352  W2        7279            0.0000000000
     21837      7279  TIP3      H2            -19.6098405720       41.4740475841      -17.3017063352  W2        7279            0.0000000000
     21838      7280  TIP3      OH2            -5.4092005720       52.3734475841       -7.0959563352  W2        7280            0.0000000000
     21839      7280  TIP3      H1             -5.5647705720       53.0518875841       -7.7530263352  W2        7280            0.0000000000
     21840      7280  TIP3      H2             -4.4765605720       52.4453775841       -6.8928963352  W2        7280            0.0000000000
     21841      7281  TIP3      OH2           -17.9139605720       36.4912175841       -8.3588163352  W2        7281            0.0000000000
     21842      7281  TIP3      H1            -18.1429805720       36.5504675841       -9.2863163352  W2        7281            0.0000000000
     21843      7281  TIP3      H2            -18.3566205720       35.6997675841       -8.0524063352  W2        7281            0.0000000000
     21844      7282  TIP3      OH2           -18.9836305720       50.4319275841      -12.1982363352  W2        7282            0.0000000000
     21845      7282  TIP3      H1            -19.8157705720       50.9041975841      -12.1710963352  W2        7282            0.0000000000
     21846      7282  TIP3      H2            -18.4378005720       50.9416875841      -12.7969263352  W2        7282            0.0000000000
     21847      7283  TIP3      OH2           -19.6952605720       53.0442975841       -0.8684363352  W2        7283            0.0000000000
     21848      7283  TIP3      H1            -19.1550405720       52.8276975841       -0.1085163352  W2        7283            0.0000000000
     21849      7283  TIP3      H2            -20.1764605720       52.2388975841       -1.0581863352  W2        7283            0.0000000000
     21850      7284  TIP3      OH2           -15.0979205720       51.9637375841        0.7519836648  W2        7284            0.0000000000
     21851      7284  TIP3      H1            -14.3302005720       51.5048175841        1.0929036648  W2        7284            0.0000000000
     21852      7284  TIP3      H2            -15.1193005720       51.7377175841       -0.1778963352  W2        7284            0.0000000000
     21853      7285  TIP3      OH2           -11.0059605720       51.4717975841      -17.8728363352  W2        7285            0.0000000000
     21854      7285  TIP3      H1            -11.6498605720       50.8406575841      -17.5514663352  W2        7285            0.0000000000
     21855      7285  TIP3      H2            -10.2441305720       50.9405975841      -18.1044863352  W2        7285            0.0000000000
     21856      7286  TIP3      OH2            -8.5210505720       50.3438475841       -0.5188663352  W2        7286            0.0000000000
     21857      7286  TIP3      H1             -8.8721005720       49.4871475841       -0.2758263352  W2        7286            0.0000000000
     21858      7286  TIP3      H2             -7.7947305720       50.4865175841        0.0880336648  W2        7286            0.0000000000
     21859      7287  TIP3      OH2            -6.4016705720       51.2887875841      -17.6390363352  W2        7287            0.0000000000
     21860      7287  TIP3      H1             -6.1186305720       50.4943075841      -17.1863463352  W2        7287            0.0000000000
     21861      7287  TIP3      H2             -5.6618805720       51.5218875841      -18.1999263352  W2        7287            0.0000000000
     21862      7288  TIP3      OH2           -19.7883105720       46.8547075841        0.0859936648  W2        7288            0.0000000000
     21863      7288  TIP3      H1            -19.6442605720       45.9527775841       -0.2003363352  W2        7288            0.0000000000
     21864      7288  TIP3      H2            -20.5605705720       47.1409175841       -0.4017763352  W2        7288            0.0000000000
     21865      7289  TIP3      OH2           -15.4469405720       47.1982775841      -17.7815463352  W2        7289            0.0000000000
     21866      7289  TIP3      H1            -15.3825305720       46.4042375841      -17.2509063352  W2        7289            0.0000000000
     21867      7289  TIP3      H2            -14.7940205720       47.0795575841      -18.4713463352  W2        7289            0.0000000000
     21868      7290  TIP3      OH2           -13.1327005720       46.8245175841       -0.4813663352  W2        7290            0.0000000000
     21869      7290  TIP3      H1            -13.4613205720       47.0953275841       -1.3386263352  W2        7290            0.0000000000
     21870      7290  TIP3      H2            -12.9808805720       45.8834975841       -0.5688663352  W2        7290            0.0000000000
     21871      7291  TIP3      OH2           -10.0946005720       48.2454475841      -18.0457463352  W2        7291            0.0000000000
     21872      7291  TIP3      H1            -10.3631905720       48.4256575841      -17.1448563352  W2        7291            0.0000000000
     21873      7291  TIP3      H2            -10.3010405720       47.3200675841      -18.1771663352  W2        7291            0.0000000000
     21874      7292  TIP3      OH2            -7.3981805720       46.7402475841       -3.0981363352  W2        7292            0.0000000000
     21875      7292  TIP3      H1             -6.6527005720       47.3286175841       -3.2177363352  W2        7292            0.0000000000
     21876      7292  TIP3      H2             -8.1555005720       47.3222175841       -3.0348263352  W2        7292            0.0000000000
     21877      7293  TIP3      OH2           -18.9556605720       44.0550375841       -0.4940763352  W2        7293            0.0000000000
     21878      7293  TIP3      H1            -18.5475405720       43.1976975841       -0.6150163352  W2        7293            0.0000000000
     21879      7293  TIP3      H2            -19.2159005720       44.0691675841        0.4269536648  W2        7293            0.0000000000
     21880      7294  TIP3      OH2           -14.2975605720       45.1708975841      -15.4757463352  W2        7294            0.0000000000
     21881      7294  TIP3      H1            -14.7573605720       44.6867275841      -14.7898963352  W2        7294            0.0000000000
     21882      7294  TIP3      H2            -14.0426905720       44.5024375841      -16.1116963352  W2        7294            0.0000000000
     21883      7295  TIP3      OH2           -15.0086305720       43.0636075841       -3.1197863352  W2        7295            0.0000000000
     21884      7295  TIP3      H1            -15.6270205720       43.7382675841       -2.8393163352  W2        7295            0.0000000000
     21885      7295  TIP3      H2            -14.6645105720       43.3849975841       -3.9531663352  W2        7295            0.0000000000
     21886      7296  TIP3      OH2           -13.2265205720       43.4140775841      -17.2134263352  W2        7296            0.0000000000
     21887      7296  TIP3      H1            -13.4070205720       43.2591975841      -18.1405963352  W2        7296            0.0000000000
     21888      7296  TIP3      H2            -12.2764705720       43.5219475841      -17.1686363352  W2        7296            0.0000000000
     21889      7297  TIP3      OH2            -9.9888105720       45.5351375841        0.1576936648  W2        7297            0.0000000000
     21890      7297  TIP3      H1             -9.0356905720       45.6190475841        0.1302936648  W2        7297            0.0000000000
     21891      7297  TIP3      H2            -10.1493505720       44.8233175841        0.7771836648  W2        7297            0.0000000000
     21892      7298  TIP3      OH2            -3.8366905720       45.7684975841      -17.7676163352  W2        7298            0.0000000000
     21893      7298  TIP3      H1             -4.1102105720       45.3440475841      -18.5807863352  W2        7298            0.0000000000
     21894      7298  TIP3      H2             -3.7972805720       46.6999475841      -17.9845763352  W2        7298            0.0000000000
     21895      7299  TIP3      OH2           -14.6692605720       40.4186875841       -2.0374763352  W2        7299            0.0000000000
     21896      7299  TIP3      H1            -14.5191705720       39.6898175841       -2.6395063352  W2        7299            0.0000000000
     21897      7299  TIP3      H2            -14.6670205720       41.1958575841       -2.5962563352  W2        7299            0.0000000000
     21898      7300  TIP3      OH2           -14.2566905720       38.7882675841       -4.5447363352  W2        7300            0.0000000000
     21899      7300  TIP3      H1            -13.7209405720       39.2399375841       -5.1968063352  W2        7300            0.0000000000
     21900      7300  TIP3      H2            -15.1087305720       38.6802475841       -4.9673263352  W2        7300            0.0000000000
     21901      7301  TIP3      OH2           -12.6748505720       44.2278875841       -4.3052163352  W2        7301            0.0000000000
     21902      7301  TIP3      H1            -11.9243705720       44.0716375841       -4.8784363352  W2        7301            0.0000000000
     21903      7301  TIP3      H2            -13.0140205720       45.0795475841       -4.5806663352  W2        7301            0.0000000000
     21904      7302  TIP3      OH2            -8.2592305720       42.0430675841        0.7233136648  W2        7302            0.0000000000
     21905      7302  TIP3      H1             -8.0671005720       41.1120075841        0.6117636648  W2        7302            0.0000000000
     21906      7302  TIP3      H2             -7.4016005720       42.4680175841        0.7128536648  W2        7302            0.0000000000
     21907      7303  TIP3      OH2            -6.9425105720       44.8315875841       -1.1994163352  W2        7303            0.0000000000
     21908      7303  TIP3      H1             -7.2240105720       45.5410475841       -1.7770363352  W2        7303            0.0000000000
     21909      7303  TIP3      H2             -6.0000805720       44.7588875841       -1.3502963352  W2        7303            0.0000000000
     21910      7304  TIP3      OH2           -16.1906305720       41.6170375841       -0.1259163352  W2        7304            0.0000000000
     21911      7304  TIP3      H1            -16.9577305720       41.0845175841       -0.3361563352  W2        7304            0.0000000000
     21912      7304  TIP3      H2            -15.5117305720       41.3070775841       -0.7252863352  W2        7304            0.0000000000
     21913      7305  TIP3      OH2           -13.4511405720       36.2448375841       -4.1133763352  W2        7305            0.0000000000
     21914      7305  TIP3      H1            -13.5491805720       37.1911575841       -4.2187563352  W2        7305            0.0000000000
     21915      7305  TIP3      H2            -14.1935205720       35.8722175841       -4.5890263352  W2        7305            0.0000000000
     21916      7306  TIP3      OH2           -12.1870905720       40.5663775841       -0.5495363352  W2        7306            0.0000000000
     21917      7306  TIP3      H1            -12.4225505720       40.3470475841        0.3519536648  W2        7306            0.0000000000
     21918      7306  TIP3      H2            -12.9704005720       40.3594975841       -1.0592863352  W2        7306            0.0000000000
     21919      7307  TIP3      OH2            -9.4714305720       39.6937275841       -1.4741863352  W2        7307            0.0000000000
     21920      7307  TIP3      H1            -10.4188905720       39.7256975841       -1.3418563352  W2        7307            0.0000000000
     21921      7307  TIP3      H2             -9.1587605720       39.0684375841       -0.8203663352  W2        7307            0.0000000000
     21922      7308  TIP3      OH2            -7.8372805720       38.3278375841        0.5310036648  W2        7308            0.0000000000
     21923      7308  TIP3      H1             -7.9341005720       37.3755675841        0.5251936648  W2        7308            0.0000000000
     21924      7308  TIP3      H2             -8.1589705720       38.5965175841        1.3915536648  W2        7308            0.0000000000
     21925      7309  TIP3      OH2           -18.0103505720       39.5374175841       -0.4214463352  W2        7309            0.0000000000
     21926      7309  TIP3      H1            -17.7986105720       38.8310275841       -1.0316963352  W2        7309            0.0000000000
     21927      7309  TIP3      H2            -18.1216005720       39.1000175841        0.4226736648  W2        7309            0.0000000000
     21928      7310  TIP3      OH2           -13.2293305720       35.5385775841       -1.4420963352  W2        7310            0.0000000000
     21929      7310  TIP3      H1            -12.5174905720       34.8987975841       -1.4561863352  W2        7310            0.0000000000
     21930      7310  TIP3      H2            -13.3302905720       35.8054075841       -2.3557863352  W2        7310            0.0000000000
     21931      7311  TIP3      OH2           -12.8755805720       37.2214175841        0.6115336648  W2        7311            0.0000000000
     21932      7311  TIP3      H1            -13.0073605720       36.7457975841       -0.2086163352  W2        7311            0.0000000000
     21933      7311  TIP3      H2            -13.4748405720       37.9657775841        0.5562436648  W2        7311            0.0000000000
     21934      7312  TIP3      OH2           -13.3293505720       54.1044475841      -16.2120663352  W2        7312            0.0000000000
     21935      7312  TIP3      H1            -12.3962805720       54.2623175841      -16.0682263352  W2        7312            0.0000000000
     21936      7312  TIP3      H2            -13.5934705720       54.7797475841      -16.8369163352  W2        7312            0.0000000000
     21937      7313  TIP3      OH2           -19.7608605720       48.7408275841      -16.7292563352  W2        7313            0.0000000000
     21938      7313  TIP3      H1            -18.8469405720       48.8197175841      -16.4558663352  W2        7313            0.0000000000
     21939      7313  TIP3      H2            -19.7535505720       48.0537875841      -17.3956963352  W2        7313            0.0000000000
     21940      7314  TIP3      OH2           -21.1118005720       54.1336775841      -11.6518663352  W2        7314            0.0000000000
     21941      7314  TIP3      H1            -21.7590905720       53.6718475841      -12.1847463352  W2        7314            0.0000000000
     21942      7314  TIP3      H2            -20.7573405720       53.4620075841      -11.0692463352  W2        7314            0.0000000000
     21943      7315  TIP3      OH2           -20.2418805720       52.2143775841       -9.8472463352  W2        7315            0.0000000000
     21944      7315  TIP3      H1            -20.5762005720       51.3341075841       -9.6752263352  W2        7315            0.0000000000
     21945      7315  TIP3      H2            -20.0196405720       52.5598775841       -8.9826863352  W2        7315            0.0000000000
     21946      7316  TIP3      OH2            -2.6934005720       53.0240175841       -6.8667663352  W2        7316            0.0000000000
     21947      7316  TIP3      H1             -2.7147305720       53.2088575841       -5.9278263352  W2        7316            0.0000000000
     21948      7316  TIP3      H2             -2.0027805720       53.5924175841       -7.2076263352  W2        7316            0.0000000000
     21949      7317  TIP3      OH2            -3.1301105720       52.5911275841       -3.9448563352  W2        7317            0.0000000000
     21950      7317  TIP3      H1             -3.6172405720       51.8555375841       -4.3161163352  W2        7317            0.0000000000
     21951      7317  TIP3      H2             -2.5808405720       52.1975175841       -3.2669163352  W2        7317            0.0000000000
     21952      7318  TIP3      OH2            -4.6793805720       48.3809375841        0.6931736648  W2        7318            0.0000000000
     21953      7318  TIP3      H1             -5.5452705720       48.2759075841        1.0874036648  W2        7318            0.0000000000
     21954      7318  TIP3      H2             -4.3027905720       49.1392675841        1.1396436648  W2        7318            0.0000000000
     21955      7319  TIP3      OH2            -3.3784105720       46.6373075841      -13.7925763352  W2        7319            0.0000000000
     21956      7319  TIP3      H1             -2.5282705720       47.0583975841      -13.6654163352  W2        7319            0.0000000000
     21957      7319  TIP3      H2             -3.3729005720       45.8973175841      -13.1854363352  W2        7319            0.0000000000
     21958      7320  TIP3      OH2            -2.9838505720       44.6910475841      -11.9690063352  W2        7320            0.0000000000
     21959      7320  TIP3      H1             -3.7103905720       44.2113075841      -11.5712463352  W2        7320            0.0000000000
     21960      7320  TIP3      H2             -2.4025205720       44.8965175841      -11.2368463352  W2        7320            0.0000000000
     21961      7321  TIP3      OH2            -3.2247305720       47.4757975841       -7.0212463352  W2        7321            0.0000000000
     21962      7321  TIP3      H1             -2.3913105720       47.0977975841       -7.3018863352  W2        7321            0.0000000000
     21963      7321  TIP3      H2             -3.1127005720       48.4189175841       -7.1403363352  W2        7321            0.0000000000
     21964      7322  TIP3      OH2            -4.7385005720       50.3535475841       -4.7144063352  W2        7322            0.0000000000
     21965      7322  TIP3      H1             -5.3859705720       50.6786975841       -4.0888863352  W2        7322            0.0000000000
     21966      7322  TIP3      H2             -5.2561005720       49.9133175841       -5.3885763352  W2        7322            0.0000000000
     21967      7323  TIP3      OH2            -2.7155405720       44.5918975841      -15.5778763352  W2        7323            0.0000000000
     21968      7323  TIP3      H1             -3.2374305720       44.9483075841      -16.2967863352  W2        7323            0.0000000000
     21969      7323  TIP3      H2             -2.7486205720       45.2666775841      -14.8997863352  W2        7323            0.0000000000
     21970      7324  TIP3      OH2            -4.3666405720       41.8314575841      -17.0271663352  W2        7324            0.0000000000
     21971      7324  TIP3      H1             -4.2702005720       42.4981575841      -17.7071963352  W2        7324            0.0000000000
     21972      7324  TIP3      H2             -4.5066805720       41.0160875841      -17.5086163352  W2        7324            0.0000000000
     21973      7325  TIP3      OH2            -5.1971705720       43.2116975841      -11.4061363352  W2        7325            0.0000000000
     21974      7325  TIP3      H1             -5.3472905720       42.2665575841      -11.4263563352  W2        7325            0.0000000000
     21975      7325  TIP3      H2             -5.5507205720       43.4928375841      -10.5622263352  W2        7325            0.0000000000
     21976      7326  TIP3      OH2           -20.1619305720       45.2899175841       -7.3957563352  W2        7326            0.0000000000
     21977      7326  TIP3      H1            -19.9776405720       45.2080875841       -8.3314663352  W2        7326            0.0000000000
     21978      7326  TIP3      H2            -19.3126405720       45.1656175841       -6.9721163352  W2        7326            0.0000000000
     21979      7327  TIP3      OH2            -4.3408805720       45.1820275841       -1.7673063352  W2        7327            0.0000000000
     21980      7327  TIP3      H1             -3.7581505720       44.4472575841       -1.5755863352  W2        7327            0.0000000000
     21981      7327  TIP3      H2             -3.7769505720       45.9540575841       -1.7207263352  W2        7327            0.0000000000
     21982      7328  TIP3      OH2            -2.8441705720       43.0846075841       -1.0827663352  W2        7328            0.0000000000
     21983      7328  TIP3      H1             -3.7075005720       42.7058175841       -1.2482963352  W2        7328            0.0000000000
     21984      7328  TIP3      H2             -2.2398005720       42.3460875841       -1.1571863352  W2        7328            0.0000000000
     21985      7329  TIP3      OH2            -5.1192605720       39.2394375841      -17.9096163352  W2        7329            0.0000000000
     21986      7329  TIP3      H1             -4.5086805720       38.8681175841      -17.2727963352  W2        7329            0.0000000000
     21987      7329  TIP3      H2             -5.9561105720       38.8181275841      -17.7136163352  W2        7329            0.0000000000
     21988      7330  TIP3      OH2            -5.4866905720       40.7942775841      -12.9436263352  W2        7330            0.0000000000
     21989      7330  TIP3      H1             -5.2069805720       39.8873175841      -12.8194563352  W2        7330            0.0000000000
     21990      7330  TIP3      H2             -4.7275205720       41.2284275841      -13.3327063352  W2        7330            0.0000000000
     21991      7331  TIP3      OH2            -4.8748605720       41.3760175841       -7.5077363352  W2        7331            0.0000000000
     21992      7331  TIP3      H1             -3.9420605720       41.5880075841       -7.5421363352  W2        7331            0.0000000000
     21993      7331  TIP3      H2             -5.1101105720       41.4772275841       -6.5854363352  W2        7331            0.0000000000
     21994      7332  TIP3      OH2            -4.8456705720       42.1125475841       -4.7317963352  W2        7332            0.0000000000
     21995      7332  TIP3      H1             -5.6885405720       42.3805875841       -4.3658163352  W2        7332            0.0000000000
     21996      7332  TIP3      H2             -4.4032405720       42.9347375841       -4.9426863352  W2        7332            0.0000000000
     21997      7333  TIP3      OH2           -20.5644505720       40.5604175841       -1.2548763352  W2        7333            0.0000000000
     21998      7333  TIP3      H1            -19.6449605720       40.4382475841       -1.0185663352  W2        7333            0.0000000000
     21999      7333  TIP3      H2            -21.0140005720       39.8103875841       -0.8655263352  W2        7333            0.0000000000
     22000      7334  TIP3      OH2            -2.5625105720       36.0925675841        0.6217036648  W2        7334            0.0000000000
     22001      7334  TIP3      H1             -2.2128105720       35.4389175841        0.0161736648  W2        7334            0.0000000000
     22002      7334  TIP3      H2             -2.4155605720       36.9299775841        0.1819636648  W2        7334            0.0000000000
     22003      7335  TIP3      OH2            -4.8732105720       38.0572075841      -12.8954263352  W2        7335            0.0000000000
     22004      7335  TIP3      H1             -4.6907105720       37.6083575841      -12.0699263352  W2        7335            0.0000000000
     22005      7335  TIP3      H2             -5.4729205720       37.4726475841      -13.3589663352  W2        7335            0.0000000000
     22006      7336  TIP3      OH2           -19.3432005720       38.8725775841       -8.3635863352  W2        7336            0.0000000000
     22007      7336  TIP3      H1            -18.8980405720       38.0808275841       -8.0616163352  W2        7336            0.0000000000
     22008      7336  TIP3      H2            -18.8769005720       39.5890975841       -7.9330263352  W2        7336            0.0000000000
     22009      7337  TIP3      OH2           -21.0391705720       41.8718775841       -7.2945663352  W2        7337            0.0000000000
     22010      7337  TIP3      H1            -20.5471905720       41.6509275841       -8.0853663352  W2        7337            0.0000000000
     22011      7337  TIP3      H2            -20.6770805720       42.7122175841       -7.0136163352  W2        7337            0.0000000000
     22012      7338  TIP3      OH2            -3.0427905720       38.2020275841       -1.0291663352  W2        7338            0.0000000000
     22013      7338  TIP3      H1             -3.9602205720       38.4727375841       -1.0648163352  W2        7338            0.0000000000
     22014      7338  TIP3      H2             -2.9198505720       37.6668675841       -1.8131963352  W2        7338            0.0000000000
     22015      7339  TIP3      OH2            -3.0065905720       38.1250175841      -16.3673963352  W2        7339            0.0000000000
     22016      7339  TIP3      H1             -2.5943305720       37.4035875841      -16.8425963352  W2        7339            0.0000000000
     22017      7339  TIP3      H2             -2.3249405720       38.7944775841      -16.3089663352  W2        7339            0.0000000000
     22018      7340  TIP3      OH2           -20.7255205720       38.1297875841      -13.2403263352  W2        7340            0.0000000000
     22019      7340  TIP3      H1            -21.6506805720       38.3384475841      -13.3697763352  W2        7340            0.0000000000
     22020      7340  TIP3      H2            -20.2715305720       38.6138675841      -13.9300963352  W2        7340            0.0000000000
     22021      7341  TIP3      OH2            -5.9548005720       53.1139575841      -11.2945863352  W2        7341            0.0000000000
     22022      7341  TIP3      H1             -5.3025105720       52.7661675841      -11.9026763352  W2        7341            0.0000000000
     22023      7341  TIP3      H2             -5.4444205720       53.6022775841      -10.6486163352  W2        7341            0.0000000000
     22024      7342  TIP3      OH2           -20.7619805720       36.8676875841       -4.8960763352  W2        7342            0.0000000000
     22025      7342  TIP3      H1            -21.4269305720       36.6217175841       -4.2529863352  W2        7342            0.0000000000
     22026      7342  TIP3      H2            -21.2048505720       37.4897275841       -5.4732763352  W2        7342            0.0000000000
     22027      7343  TIP3      OH2           -18.5700505720       50.0430975841       -0.7514963352  W2        7343            0.0000000000
     22028      7343  TIP3      H1            -19.3908005720       50.2177475841       -1.2120263352  W2        7343            0.0000000000
     22029      7343  TIP3      H2            -18.8222705720       49.9695675841        0.1689436648  W2        7343            0.0000000000
     22030      7344  TIP3      OH2           -15.6157605720       51.0172175841       -4.4930963352  W2        7344            0.0000000000
     22031      7344  TIP3      H1            -16.0406505720       51.8270675841       -4.7756363352  W2        7344            0.0000000000
     22032      7344  TIP3      H2            -14.7114805720       51.1026275841       -4.7951163352  W2        7344            0.0000000000
     22033      7345  TIP3      OH2           -11.3046205720       52.4162175841       -1.5337263352  W2        7345            0.0000000000
     22034      7345  TIP3      H1            -11.1198705720       52.0828275841       -0.6556963352  W2        7345            0.0000000000
     22035      7345  TIP3      H2            -10.4581705720       52.7260775841       -1.8558063352  W2        7345            0.0000000000
     22036      7346  TIP3      OH2            -8.9595805720       53.7021075841       -2.2895863352  W2        7346            0.0000000000
     22037      7346  TIP3      H1             -8.2826905720       53.0693375841       -2.5296663352  W2        7346            0.0000000000
     22038      7346  TIP3      H2             -8.6377005720       54.1031575841       -1.4822563352  W2        7346            0.0000000000
     22039      7347  TIP3      OH2            -4.0422005720       36.2916575841       -3.2100863352  W2        7347            0.0000000000
     22040      7347  TIP3      H1             -4.8548505720       36.6166875841       -3.5976163352  W2        7347            0.0000000000
     22041      7347  TIP3      H2             -3.8093505720       35.5315075841       -3.7431763352  W2        7347            0.0000000000
     22042      7348  TIP3      OH2           -18.2140905720       54.2736075841       -4.4455663352  W2        7348            0.0000000000
     22043      7348  TIP3      H1            -18.9344505720       54.7137075841       -4.8967963352  W2        7348            0.0000000000
     22044      7348  TIP3      H2            -18.5796905720       54.0230775841       -3.5971663352  W2        7348            0.0000000000
     22045      7349  TIP3      OH2           -15.7468305720       53.8739975841       -5.4158463352  W2        7349            0.0000000000
     22046      7349  TIP3      H1            -16.6116105720       53.9458475841       -5.0118363352  W2        7349            0.0000000000
     22047      7349  TIP3      H2            -15.8019305720       54.4207275841       -6.1995963352  W2        7349            0.0000000000
     22048      7350  TIP3      OH2           -11.0362705720       53.7618875841       -6.2402463352  W2        7350            0.0000000000
     22049      7350  TIP3      H1            -11.4928705720       54.2908575841       -6.8944063352  W2        7350            0.0000000000
     22050      7350  TIP3      H2            -10.8734705720       54.3650275841       -5.5150163352  W2        7350            0.0000000000
     22051      7351  TIP3      OH2            -8.7086405720       52.6398475841       -5.2952163352  W2        7351            0.0000000000
     22052      7351  TIP3      H1             -9.6132705720       52.8048675841       -5.5610063352  W2        7351            0.0000000000
     22053      7351  TIP3      H2             -8.2797805720       53.4930675841       -5.3608763352  W2        7351            0.0000000000
     22054      7352  TIP3      OH2            -6.1044505720       54.2097575841       -5.0004363352  W2        7352            0.0000000000
     22055      7352  TIP3      H1             -6.2862505720       55.1256475841       -5.2109463352  W2        7352            0.0000000000
     22056      7352  TIP3      H2             -5.9276705720       53.7994675841       -5.8469763352  W2        7352            0.0000000000
     22057      7353  TIP3      OH2           -18.7992805720       52.8968575841       -7.5353863352  W2        7353            0.0000000000
     22058      7353  TIP3      H1            -18.8176805720       52.4713675841       -6.6781563352  W2        7353            0.0000000000
     22059      7353  TIP3      H2            -17.9944905720       52.5783575841       -7.9441663352  W2        7353            0.0000000000
     22060      7354  TIP3      OH2           -16.6579705720       51.6067275841       -8.8803963352  W2        7354            0.0000000000
     22061      7354  TIP3      H1            -16.8769005720       50.6904675841       -8.7107963352  W2        7354            0.0000000000
     22062      7354  TIP3      H2            -15.8337505720       51.7467675841       -8.4142563352  W2        7354            0.0000000000
     22063      7355  TIP3      OH2           -14.1207205720       52.0766575841       -8.0315963352  W2        7355            0.0000000000
     22064      7355  TIP3      H1            -13.9081505720       51.1885575841       -8.3185063352  W2        7355            0.0000000000
     22065      7355  TIP3      H2            -14.0562105720       52.0424275841       -7.0771963352  W2        7355            0.0000000000
     22066      7356  TIP3      OH2           -10.6123505720       37.7407175841       -8.8872663352  W2        7356            0.0000000000
     22067      7356  TIP3      H1            -11.2866705720       37.1112775841       -8.6316863352  W2        7356            0.0000000000
     22068      7356  TIP3      H2            -10.0484305720       37.2566075841       -9.4904763352  W2        7356            0.0000000000
     22069      7357  TIP3      OH2            -5.4696305720       35.8481175841       -8.7745563352  W2        7357            0.0000000000
     22070      7357  TIP3      H1             -4.8658705720       36.3956575841       -9.2764563352  W2        7357            0.0000000000
     22071      7357  TIP3      H2             -6.3394305720       36.1671575841       -9.0151463352  W2        7357            0.0000000000
     22072      7358  TIP3      OH2            -3.7425905720       36.9869875841      -10.4414663352  W2        7358            0.0000000000
     22073      7358  TIP3      H1             -3.1308405720       36.4725575841      -10.9681063352  W2        7358            0.0000000000
     22074      7358  TIP3      H2             -3.3602505720       37.8641975841      -10.4180263352  W2        7358            0.0000000000
     22075      7359  TIP3      OH2           -18.2856005720       36.3747475841      -11.0652763352  W2        7359            0.0000000000
     22076      7359  TIP3      H1            -19.0626205720       36.1402375841      -11.5726863352  W2        7359            0.0000000000
     22077      7359  TIP3      H2            -17.7552405720       35.5779575841      -11.0564763352  W2        7359            0.0000000000
     22078      7360  TIP3      OH2           -19.4492605720       36.1725575841      -15.2616663352  W2        7360            0.0000000000
     22079      7360  TIP3      H1            -19.0101905720       36.7836075841      -15.8533163352  W2        7360            0.0000000000
     22080      7360  TIP3      H2            -20.0830205720       36.7109675841      -14.7876663352  W2        7360            0.0000000000
     22081      7361  TIP3      OH2           -13.7063405720       36.3014575841      -11.2519663352  W2        7361            0.0000000000
     22082      7361  TIP3      H1            -12.8320005720       36.6898875841      -11.2815363352  W2        7361            0.0000000000
     22083      7361  TIP3      H2            -13.8422605720       36.0862375841      -10.3292463352  W2        7361            0.0000000000
     22084      7362  TIP3      OH2            -8.1495005720       36.3314375841       -9.6027963352  W2        7362            0.0000000000
     22085      7362  TIP3      H1             -8.0733405720       36.4265975841      -10.5521963352  W2        7362            0.0000000000
     22086      7362  TIP3      H2             -8.4245805720       35.4237275841       -9.4738863352  W2        7362            0.0000000000
     22087      7363  TIP3      OH2            -6.7962405720       36.3572175841      -13.9102963352  W2        7363            0.0000000000
     22088      7363  TIP3      H1             -7.4991305720       36.9721375841      -14.1201563352  W2        7363            0.0000000000
     22089      7363  TIP3      H2             -7.2411005720       35.5198875841      -13.7792063352  W2        7363            0.0000000000
     22090      7364  TIP3      OH2           -19.5483105720       52.1207775841      -14.3641563352  W2        7364            0.0000000000
     22091      7364  TIP3      H1            -20.2333205720       52.0826675841      -15.0316463352  W2        7364            0.0000000000
     22092      7364  TIP3      H2            -19.5445905720       53.0335375841      -14.0759463352  W2        7364            0.0000000000
     22093      7365  TIP3      OH2           -17.5883505720       38.0887075841      -16.8192563352  W2        7365            0.0000000000
     22094      7365  TIP3      H1            -17.0970105720       37.4589475841      -17.3467063352  W2        7365            0.0000000000
     22095      7365  TIP3      H2            -16.9647205720       38.3846475841      -16.1561363352  W2        7365            0.0000000000
     22096      7366  TIP3      OH2           -12.5623405720       38.3818575841      -14.3622063352  W2        7366            0.0000000000
     22097      7366  TIP3      H1            -12.3842105720       37.7351775841      -13.6793463352  W2        7366            0.0000000000
     22098      7366  TIP3      H2            -12.6157205720       39.2156275841      -13.8950963352  W2        7366            0.0000000000
     22099      7367  TIP3      OH2           -10.6839605720       53.3302675841      -15.9665363352  W2        7367            0.0000000000
     22100      7367  TIP3      H1             -9.8179405720       53.6970075841      -16.1447163352  W2        7367            0.0000000000
     22101      7367  TIP3      H2            -10.9306805720       52.8910675841      -16.7804563352  W2        7367            0.0000000000
     22102      7368  TIP3      OH2            -3.9750005720       52.8932975841      -13.2874263352  W2        7368            0.0000000000
     22103      7368  TIP3      H1             -4.1692905720       52.1455075841      -13.8524663352  W2        7368            0.0000000000
     22104      7368  TIP3      H2             -4.0139905720       53.6513075841      -13.8706363352  W2        7368            0.0000000000
     22105      7369  TIP3      OH2           -18.3278005720       36.8889375841       -1.5476563352  W2        7369            0.0000000000
     22106      7369  TIP3      H1            -18.6939805720       36.1231975841       -1.1051863352  W2        7369            0.0000000000
     22107      7369  TIP3      H2            -17.4149505720       36.9179575841       -1.2611463352  W2        7369            0.0000000000
     22108      7370  TIP3      OH2           -16.3547205720       36.2393775841       -0.0119463352  W2        7370            0.0000000000
     22109      7370  TIP3      H1            -15.4563605720       35.9653975841       -0.1966063352  W2        7370            0.0000000000
     22110      7370  TIP3      H2            -16.7414105720       35.4969775841        0.4523136648  W2        7370            0.0000000000
     22111      7371  TIP3      OH2           -17.7301905720       53.0408575841      -17.3389463352  W2        7371            0.0000000000
     22112      7371  TIP3      H1            -17.9977305720       53.3271475841      -16.4656363352  W2        7371            0.0000000000
     22113      7371  TIP3      H2            -16.9589305720       52.4947775841      -17.1866963352  W2        7371            0.0000000000
     22114      7372  TIP3      OH2            -7.9334905720       35.5719075841        0.1703336648  W2        7372            0.0000000000
     22115      7372  TIP3      H1             -7.8567705720       35.1459775841        1.0241036648  W2        7372            0.0000000000
     22116      7372  TIP3      H2             -7.0398305720       35.5853775841       -0.1723163352  W2        7372            0.0000000000
     22117      7373  TIP3      OH2            -4.7573805720       51.6445375841       -1.1372463352  W2        7373            0.0000000000
     22118      7373  TIP3      H1             -5.5391905720       51.4583375841       -1.6571863352  W2        7373            0.0000000000
     22119      7373  TIP3      H2             -4.8293905720       52.5739675841       -0.9199963352  W2        7373            0.0000000000
     22120      7374  TIP3      OH2             9.6486594280       45.5309775841      -11.1065263352  W2        7374            0.0000000000
     22121      7374  TIP3      H1              9.7377694280       46.4747975841      -11.2388163352  W2        7374            0.0000000000
     22122      7374  TIP3      H2              9.0104194280       45.2556175841      -11.7645863352  W2        7374            0.0000000000
     22123      7375  TIP3      OH2             8.5817894280       44.7860475841       -7.6877063352  W2        7375            0.0000000000
     22124      7375  TIP3      H1              8.5435394280       44.1396775841       -6.9827463352  W2        7375            0.0000000000
     22125      7375  TIP3      H2              8.2594394280       44.3194875841       -8.4588363352  W2        7375            0.0000000000
     22126      7376  TIP3      OH2             0.9502894280       44.4002575841       -6.0947163352  W2        7376            0.0000000000
     22127      7376  TIP3      H1              0.9914994280       43.7745875841       -5.3714763352  W2        7376            0.0000000000
     22128      7376  TIP3      H2              1.6530594280       45.0241175841       -5.9126763352  W2        7376            0.0000000000
     22129      7377  TIP3      OH2            12.2878094280       47.7250875841       -9.3861963352  W2        7377            0.0000000000
     22130      7377  TIP3      H1             11.8470794280       47.0046875841       -8.9356363352  W2        7377            0.0000000000
     22131      7377  TIP3      H2             12.2747794280       48.4458075841       -8.7564263352  W2        7377            0.0000000000
     22132      7378  TIP3      OH2             1.8735994280       48.8501475841       -7.5598063352  W2        7378            0.0000000000
     22133      7378  TIP3      H1              1.5041194280       48.0481975841       -7.9293763352  W2        7378            0.0000000000
     22134      7378  TIP3      H2              2.8147094280       48.6816375841       -7.5134663352  W2        7378            0.0000000000
     22135      7379  TIP3      OH2            -1.5163505720       42.5104075841      -12.1669263352  W2        7379            0.0000000000
     22136      7379  TIP3      H1             -1.9640105720       43.3562775841      -12.1852763352  W2        7379            0.0000000000
     22137      7379  TIP3      H2             -2.0772305720       41.9308275841      -12.6824163352  W2        7379            0.0000000000
     22138      7380  TIP3      OH2            -0.8057405720       44.6723675841      -10.0411263352  W2        7380            0.0000000000
     22139      7380  TIP3      H1             -0.5923905720       43.9025275841       -9.5138263352  W2        7380            0.0000000000
     22140      7380  TIP3      H2             -0.0679805720       44.7620375841      -10.6443663352  W2        7380            0.0000000000
     22141      7381  TIP3      OH2             9.3993594280       52.8292575841       -9.1741563352  W2        7381            0.0000000000
     22142      7381  TIP3      H1             10.0189994280       52.1527275841       -9.4472363352  W2        7381            0.0000000000
     22143      7381  TIP3      H2              9.1910994280       52.6113375841       -8.2656663352  W2        7381            0.0000000000
     22144      7382  TIP3      OH2             6.9712294280       47.2181875841       -7.2816063352  W2        7382            0.0000000000
     22145      7382  TIP3      H1              7.2750194280       46.5323275841       -7.8761963352  W2        7382            0.0000000000
     22146      7382  TIP3      H2              7.6926294280       47.3370575841       -6.6638063352  W2        7382            0.0000000000
     22147      7383  TIP3      OH2            15.6342094280       38.8197175841       -6.4209863352  W2        7383            0.0000000000
     22148      7383  TIP3      H1             15.6834294280       39.4298375841       -5.6850763352  W2        7383            0.0000000000
     22149      7383  TIP3      H2             16.0597194280       39.2808075841       -7.1438763352  W2        7383            0.0000000000
     22150      7384  TIP3      OH2            10.1119294280       41.6124275841       -6.9541263352  W2        7384            0.0000000000
     22151      7384  TIP3      H1             10.2545194280       40.6661275841       -6.9339663352  W2        7384            0.0000000000
     22152      7384  TIP3      H2             10.0058294280       41.8194075841       -7.8826363352  W2        7384            0.0000000000
     22153      7385  TIP3      OH2             3.2667594280       39.7140675841       -9.6816463352  W2        7385            0.0000000000
     22154      7385  TIP3      H1              3.3098694280       40.5739175841      -10.1000163352  W2        7385            0.0000000000
     22155      7385  TIP3      H2              2.8091694280       39.1615375841      -10.3153263352  W2        7385            0.0000000000
     22156      7386  TIP3      OH2            10.9890294280       39.8446275841      -11.2808163352  W2        7386            0.0000000000
     22157      7386  TIP3      H1             11.6354594280       39.5159475841      -10.6560563352  W2        7386            0.0000000000
     22158      7386  TIP3      H2             11.4989694280       40.3625275841      -11.9036763352  W2        7386            0.0000000000
     22159      7387  TIP3      OH2            -0.1130905720       42.1106475841       -8.9195063352  W2        7387            0.0000000000
     22160      7387  TIP3      H1              0.5405694280       41.5608175841       -8.4874963352  W2        7387            0.0000000000
     22161      7387  TIP3      H2             -0.0891605720       41.8365475841       -9.8363063352  W2        7387            0.0000000000
     22162      7388  TIP3      OH2             5.0433594280       43.6607775841       -9.7043563352  W2        7388            0.0000000000
     22163      7388  TIP3      H1              5.6594594280       43.1343175841       -9.1949563352  W2        7388            0.0000000000
     22164      7388  TIP3      H2              4.4572394280       43.0206475841      -10.1079963352  W2        7388            0.0000000000
     22165      7389  TIP3      OH2            16.0256694280       40.2976375841       -4.1850063352  W2        7389            0.0000000000
     22166      7389  TIP3      H1             15.3371294280       40.9557075841       -4.2803463352  W2        7389            0.0000000000
     22167      7389  TIP3      H2             16.0411294280       40.1004275841       -3.2484663352  W2        7389            0.0000000000
     22168      7390  TIP3      OH2             2.0769494280       38.6319075841       -5.6075663352  W2        7390            0.0000000000
     22169      7390  TIP3      H1              1.8581194280       39.1619675841       -6.3739663352  W2        7390            0.0000000000
     22170      7390  TIP3      H2              1.4090394280       38.8584575841       -4.9604263352  W2        7390            0.0000000000
     22171      7391  TIP3      OH2             9.4459294280       48.1320175841      -12.0636563352  W2        7391            0.0000000000
     22172      7391  TIP3      H1              9.1504394280       47.8092475841      -12.9149663352  W2        7391            0.0000000000
     22173      7391  TIP3      H2              9.1217094280       49.0316875841      -12.0223963352  W2        7391            0.0000000000
     22174      7392  TIP3      OH2             4.6460894280       46.3074775841       -5.3201963352  W2        7392            0.0000000000
     22175      7392  TIP3      H1              3.9059994280       46.9056275841       -5.2166763352  W2        7392            0.0000000000
     22176      7392  TIP3      H2              5.3600394280       46.8614375841       -5.6358363352  W2        7392            0.0000000000
     22177      7393  TIP3      OH2            12.7528694280       39.1355575841       -9.3002263352  W2        7393            0.0000000000
     22178      7393  TIP3      H1             12.5376694280       38.3698975841       -8.7676263352  W2        7393            0.0000000000
     22179      7393  TIP3      H2             13.4086094280       39.6080175841       -8.7873763352  W2        7393            0.0000000000
     22180      7394  TIP3      OH2             1.6706794280       40.5240875841       -7.6553463352  W2        7394            0.0000000000
     22181      7394  TIP3      H1              2.2843094280       41.1568475841       -7.2821063352  W2        7394            0.0000000000
     22182      7394  TIP3      H2              2.1827494280       40.0515875841       -8.3116563352  W2        7394            0.0000000000
     22183      7395  TIP3      OH2             3.0535194280       48.2717775841       -4.5330463352  W2        7395            0.0000000000
     22184      7395  TIP3      H1              3.0482794280       49.1511275841       -4.9111163352  W2        7395            0.0000000000
     22185      7395  TIP3      H2              2.1999294280       48.1881875841       -4.1080563352  W2        7395            0.0000000000
     22186      7396  TIP3      OH2            -0.8253905720       47.9425675841      -13.7511163352  W2        7396            0.0000000000
     22187      7396  TIP3      H1             -1.0973005720       48.1716675841      -14.6398263352  W2        7396            0.0000000000
     22188      7396  TIP3      H2             -0.7798205720       48.7804475841      -13.2905863352  W2        7396            0.0000000000
     22189      7397  TIP3      OH2            12.7995794280       49.5641575841       -7.0382663352  W2        7397            0.0000000000
     22190      7397  TIP3      H1             11.8579494280       49.6225475841       -6.8765763352  W2        7397            0.0000000000
     22191      7397  TIP3      H2             13.0761894280       50.4702075841       -7.1752963352  W2        7397            0.0000000000
     22192      7398  TIP3      OH2            13.1002794280       37.8506875841       -5.6208763352  W2        7398            0.0000000000
     22193      7398  TIP3      H1             12.3641994280       38.4613975841       -5.6587463352  W2        7398            0.0000000000
     22194      7398  TIP3      H2             13.7836794280       38.2655875841       -6.1472363352  W2        7398            0.0000000000
     22195      7399  TIP3      OH2             6.1034194280       35.9374175841       -8.1550763352  W2        7399            0.0000000000
     22196      7399  TIP3      H1              5.9858394280       34.9890175841       -8.2092463352  W2        7399            0.0000000000
     22197      7399  TIP3      H2              5.2484294280       36.2700275841       -7.8819663352  W2        7399            0.0000000000
     22198      7400  TIP3      OH2            11.0516994280       51.3455075841      -10.4131063352  W2        7400            0.0000000000
     22199      7400  TIP3      H1             11.4769294280       50.6382975841      -10.8981463352  W2        7400            0.0000000000
     22200      7400  TIP3      H2             11.3686994280       52.1467775841      -10.8298863352  W2        7400            0.0000000000
     22201      7401  TIP3      OH2            12.2113494280       49.2463575841      -11.9044463352  W2        7401            0.0000000000
     22202      7401  TIP3      H1             11.9538294280       48.5563675841      -12.5158563352  W2        7401            0.0000000000
     22203      7401  TIP3      H2             12.2824294280       48.8034775841      -11.0588563352  W2        7401            0.0000000000
     22204      7402  TIP3      OH2            13.8973694280       47.8130275841       -3.4270963352  W2        7402            0.0000000000
     22205      7402  TIP3      H1             14.0369994280       47.2212775841       -4.1663963352  W2        7402            0.0000000000
     22206      7402  TIP3      H2             14.0646494280       48.6856175841       -3.7832163352  W2        7402            0.0000000000
     22207      7403  TIP3      OH2             8.3699094280       44.7749775841      -13.6544963352  W2        7403            0.0000000000
     22208      7403  TIP3      H1              7.6584594280       45.3099475841      -14.0064463352  W2        7403            0.0000000000
     22209      7403  TIP3      H2              9.0608694280       44.8301875841      -14.3146063352  W2        7403            0.0000000000
     22210      7404  TIP3      OH2             8.4238294280       43.2324075841      -16.6159963352  W2        7404            0.0000000000
     22211      7404  TIP3      H1              9.1248194280       43.2550975841      -15.9645963352  W2        7404            0.0000000000
     22212      7404  TIP3      H2              8.7261194280       42.6043775841      -17.2720663352  W2        7404            0.0000000000
     22213      7405  TIP3      OH2            15.7392994280       44.1528275841       -5.3610563352  W2        7405            0.0000000000
     22214      7405  TIP3      H1             15.0867094280       44.8473875841       -5.2719663352  W2        7405            0.0000000000
     22215      7405  TIP3      H2             16.2043294280       44.3629175841       -6.1708963352  W2        7405            0.0000000000
     22216      7406  TIP3      OH2            11.7756794280       44.9843075841      -12.7029063352  W2        7406            0.0000000000
     22217      7406  TIP3      H1             11.0437794280       45.2126775841      -12.1298463352  W2        7406            0.0000000000
     22218      7406  TIP3      H2             12.2228994280       44.2705775841      -12.2481563352  W2        7406            0.0000000000
     22219      7407  TIP3      OH2            11.6730294280       43.1585675841       -3.6352063352  W2        7407            0.0000000000
     22220      7407  TIP3      H1             11.7529394280       43.9220075841       -3.0633563352  W2        7407            0.0000000000
     22221      7407  TIP3      H2             11.0717994280       43.4378075841       -4.3256963352  W2        7407            0.0000000000
     22222      7408  TIP3      OH2             3.4210494280       45.6149275841      -10.8204063352  W2        7408            0.0000000000
     22223      7408  TIP3      H1              3.0905694280       45.2442675841      -11.6387063352  W2        7408            0.0000000000
     22224      7408  TIP3      H2              4.0094594280       44.9443275841      -10.4735763352  W2        7408            0.0000000000
     22225      7409  TIP3      OH2             4.7877994280       49.0429875841       -8.1391863352  W2        7409            0.0000000000
     22226      7409  TIP3      H1              4.6929294280       48.4642975841       -8.8957263352  W2        7409            0.0000000000
     22227      7409  TIP3      H2              5.5171594280       48.6715575841       -7.6429063352  W2        7409            0.0000000000
     22228      7410  TIP3      OH2             3.7875994280       44.3834875841       -7.1869063352  W2        7410            0.0000000000
     22229      7410  TIP3      H1              4.3528494280       44.5049075841       -7.9497863352  W2        7410            0.0000000000
     22230      7410  TIP3      H2              4.1064894280       45.0209875841       -6.5480563352  W2        7410            0.0000000000
     22231      7411  TIP3      OH2            10.0968194280       49.8866775841       -6.4528563352  W2        7411            0.0000000000
     22232      7411  TIP3      H1              9.8564794280       50.5489875841       -5.8049363352  W2        7411            0.0000000000
     22233      7411  TIP3      H2              9.8986394280       49.0521975841       -6.0278963352  W2        7411            0.0000000000
     22234      7412  TIP3      OH2             4.6676694280       48.7827575841       -2.4697163352  W2        7412            0.0000000000
     22235      7412  TIP3      H1              4.3564194280       49.5650775841       -2.0143963352  W2        7412            0.0000000000
     22236      7412  TIP3      H2              4.0176894280       48.6296675841       -3.1555163352  W2        7412            0.0000000000
     22237      7413  TIP3      OH2            10.6466294280       44.1465975841      -15.0177863352  W2        7413            0.0000000000
     22238      7413  TIP3      H1             11.2261794280       44.2966275841      -14.2708963352  W2        7413            0.0000000000
     22239      7413  TIP3      H2             11.0606294280       44.6173375841      -15.7411463352  W2        7413            0.0000000000
     22240      7414  TIP3      OH2             1.5876594280       44.9808675841       -3.2411463352  W2        7414            0.0000000000
     22241      7414  TIP3      H1              1.6579794280       45.6315475841       -2.5426463352  W2        7414            0.0000000000
     22242      7414  TIP3      H2              0.6968794280       45.0836175841       -3.5760563352  W2        7414            0.0000000000
     22243      7415  TIP3      OH2             8.3731194280       50.8834475841      -11.5824763352  W2        7415            0.0000000000
     22244      7415  TIP3      H1              8.8468794280       51.1790775841      -10.8050563352  W2        7415            0.0000000000
     22245      7415  TIP3      H2              7.8100494280       51.6216075841      -11.8155163352  W2        7415            0.0000000000
     22246      7416  TIP3      OH2             2.9072594280       50.8542575841       -1.7063363352  W2        7416            0.0000000000
     22247      7416  TIP3      H1              2.9147894280       50.7182275841       -2.6537863352  W2        7416            0.0000000000
     22248      7416  TIP3      H2              1.9912994280       50.7370675841       -1.4543363352  W2        7416            0.0000000000
     22249      7417  TIP3      OH2            14.3454694280       35.8966375841      -15.2048163352  W2        7417            0.0000000000
     22250      7417  TIP3      H1             13.4455394280       36.0355375841      -14.9097563352  W2        7417            0.0000000000
     22251      7417  TIP3      H2             14.5973094280       36.7280975841      -15.6066463352  W2        7417            0.0000000000
     22252      7418  TIP3      OH2             2.4113194280       44.6843575841      -13.2311263352  W2        7418            0.0000000000
     22253      7418  TIP3      H1              2.1194494280       45.4525275841      -13.7219963352  W2        7418            0.0000000000
     22254      7418  TIP3      H2              1.7368394280       44.0249775841      -13.3939863352  W2        7418            0.0000000000
     22255      7419  TIP3      OH2            15.5346094280       50.2628775841      -16.8284263352  W2        7419            0.0000000000
     22256      7419  TIP3      H1             15.6079594280       51.2018975841      -16.6578963352  W2        7419            0.0000000000
     22257      7419  TIP3      H2             16.4401194280       49.9577375841      -16.8846963352  W2        7419            0.0000000000
     22258      7420  TIP3      OH2            -1.4956705720       47.0472775841       -4.4161463352  W2        7420            0.0000000000
     22259      7420  TIP3      H1             -1.9968305720       47.0192175841       -5.2311763352  W2        7420            0.0000000000
     22260      7420  TIP3      H2             -1.4903005720       46.1415975841       -4.1064163352  W2        7420            0.0000000000
     22261      7421  TIP3      OH2            -1.7454005720       49.8276575841       -7.5321263352  W2        7421            0.0000000000
     22262      7421  TIP3      H1             -0.7993405720       49.6833575841       -7.5511763352  W2        7421            0.0000000000
     22263      7421  TIP3      H2             -1.8577705720       50.6119375841       -6.9950063352  W2        7421            0.0000000000
     22264      7422  TIP3      OH2            16.4524494280       50.4936275841       -1.8497563352  W2        7422            0.0000000000
     22265      7422  TIP3      H1             16.4031294280       49.5384375841       -1.8869963352  W2        7422            0.0000000000
     22266      7422  TIP3      H2             15.6256794280       50.7611575841       -1.4483763352  W2        7422            0.0000000000
     22267      7423  TIP3      OH2             7.4308494280       50.0675475841       -2.9736163352  W2        7423            0.0000000000
     22268      7423  TIP3      H1              7.5183094280       50.8940075841       -2.4987063352  W2        7423            0.0000000000
     22269      7423  TIP3      H2              6.5673594280       49.7379275841       -2.7246863352  W2        7423            0.0000000000
     22270      7424  TIP3      OH2             7.8454294280       53.8399175841      -13.1675563352  W2        7424            0.0000000000
     22271      7424  TIP3      H1              7.7700294280       53.7186375841      -14.1140363352  W2        7424            0.0000000000
     22272      7424  TIP3      H2              7.8782994280       54.7891875841      -13.0490963352  W2        7424            0.0000000000
     22273      7425  TIP3      OH2             1.4988094280       52.6286175841      -11.3866563352  W2        7425            0.0000000000
     22274      7425  TIP3      H1              1.6508494280       52.2806575841      -10.5080063352  W2        7425            0.0000000000
     22275      7425  TIP3      H2              0.6478494280       52.2723475841      -11.6419363352  W2        7425            0.0000000000
     22276      7426  TIP3      OH2            10.9470294280       52.9939375841      -16.1653163352  W2        7426            0.0000000000
     22277      7426  TIP3      H1             11.3218694280       52.2495475841      -16.6360563352  W2        7426            0.0000000000
     22278      7426  TIP3      H2             10.9513994280       52.7239975841      -15.2469863352  W2        7426            0.0000000000
     22279      7427  TIP3      OH2            10.6158394280       52.9196475841      -13.4160963352  W2        7427            0.0000000000
     22280      7427  TIP3      H1              9.6808194280       53.0198375841      -13.2373963352  W2        7427            0.0000000000
     22281      7427  TIP3      H2             10.8960294280       52.2102475841      -12.8377763352  W2        7427            0.0000000000
     22282      7428  TIP3      OH2            13.6044294280       41.9868775841       -1.3695363352  W2        7428            0.0000000000
     22283      7428  TIP3      H1             13.1971094280       42.4674375841       -2.0902063352  W2        7428            0.0000000000
     22284      7428  TIP3      H2             13.6449994280       41.0814775841       -1.6774563352  W2        7428            0.0000000000
     22285      7429  TIP3      OH2             0.7533794280       48.3708175841       -3.3728663352  W2        7429            0.0000000000
     22286      7429  TIP3      H1              0.9695094280       48.0093775841       -2.5132863352  W2        7429            0.0000000000
     22287      7429  TIP3      H2             -0.1021505720       47.9961975841       -3.5825163352  W2        7429            0.0000000000
     22288      7430  TIP3      OH2             3.3721794280       36.8408675841       -7.3774463352  W2        7430            0.0000000000
     22289      7430  TIP3      H1              2.5105494280       36.7536875841       -7.7851563352  W2        7430            0.0000000000
     22290      7430  TIP3      H2              3.3497494280       37.6968775841       -6.9496863352  W2        7430            0.0000000000
     22291      7431  TIP3      OH2             8.0349594280       36.5629075841       -4.0027463352  W2        7431            0.0000000000
     22292      7431  TIP3      H1              8.4552694280       36.1476175841       -3.2496863352  W2        7431            0.0000000000
     22293      7431  TIP3      H2              7.1019194280       36.3842375841       -3.8855463352  W2        7431            0.0000000000
     22294      7432  TIP3      OH2            11.3614494280       40.3184275841       -3.1492963352  W2        7432            0.0000000000
     22295      7432  TIP3      H1             10.8473994280       40.1926475841       -2.3516963352  W2        7432            0.0000000000
     22296      7432  TIP3      H2             11.2059194280       41.2307375841       -3.3936763352  W2        7432            0.0000000000
     22297      7433  TIP3      OH2            12.1239394280       45.1794275841      -17.3879963352  W2        7433            0.0000000000
     22298      7433  TIP3      H1             12.1660194280       44.9568175841      -18.3179963352  W2        7433            0.0000000000
     22299      7433  TIP3      H2             12.9731494280       45.5781375841      -17.1980063352  W2        7433            0.0000000000
     22300      7434  TIP3      OH2             7.6966894280       39.0552475841      -16.7176663352  W2        7434            0.0000000000
     22301      7434  TIP3      H1              7.4431694280       39.0744075841      -15.7948563352  W2        7434            0.0000000000
     22302      7434  TIP3      H2              7.4398994280       38.1837875841      -17.0190463352  W2        7434            0.0000000000
     22303      7435  TIP3      OH2             3.4631894280       41.8063175841       -6.2824263352  W2        7435            0.0000000000
     22304      7435  TIP3      H1              2.8213994280       41.7660475841       -5.5734163352  W2        7435            0.0000000000
     22305      7435  TIP3      H2              3.5003894280       42.7327875841       -6.5201263352  W2        7435            0.0000000000
     22306      7436  TIP3      OH2             3.4600994280       42.0273275841      -11.3704263352  W2        7436            0.0000000000
     22307      7436  TIP3      H1              2.5673894280       41.6869375841      -11.4290463352  W2        7436            0.0000000000
     22308      7436  TIP3      H2              3.9107594280       41.6504175841      -12.1261063352  W2        7436            0.0000000000
     22309      7437  TIP3      OH2             8.9956494280       42.4433575841      -12.5533463352  W2        7437            0.0000000000
     22310      7437  TIP3      H1              8.5866794280       43.2582175841      -12.8448663352  W2        7437            0.0000000000
     22311      7437  TIP3      H2              9.7162694280       42.3033675841      -13.1676363352  W2        7437            0.0000000000
     22312      7438  TIP3      OH2             8.0978094280       42.6189975841       -1.0652763352  W2        7438            0.0000000000
     22313      7438  TIP3      H1              7.5351894280       41.9141575841       -0.7444963352  W2        7438            0.0000000000
     22314      7438  TIP3      H2              8.9241494280       42.4981875841       -0.5975163352  W2        7438            0.0000000000
     22315      7439  TIP3      OH2            10.0004194280       41.8893975841       -9.7393763352  W2        7439            0.0000000000
     22316      7439  TIP3      H1              9.8048694280       42.4950775841      -10.4543163352  W2        7439            0.0000000000
     22317      7439  TIP3      H2             10.1816794280       41.0559175841      -10.1737463352  W2        7439            0.0000000000
     22318      7440  TIP3      OH2             1.2132394280       42.1266675841       -4.4152263352  W2        7440            0.0000000000
     22319      7440  TIP3      H1              1.1751794280       42.5268275841       -3.5465163352  W2        7440            0.0000000000
     22320      7440  TIP3      H2              0.7223494280       41.3099075841       -4.3249363352  W2        7440            0.0000000000
     22321      7441  TIP3      OH2             4.5789794280       39.5008975841      -17.6166263352  W2        7441            0.0000000000
     22322      7441  TIP3      H1              4.1480494280       39.0559075841      -16.8868863352  W2        7441            0.0000000000
     22323      7441  TIP3      H2              3.8608494280       39.8725275841      -18.1288763352  W2        7441            0.0000000000
     22324      7442  TIP3      OH2            -2.1786805720       39.2428475841      -10.5647563352  W2        7442            0.0000000000
     22325      7442  TIP3      H1             -1.5479105720       39.2140575841       -9.8453663352  W2        7442            0.0000000000
     22326      7442  TIP3      H2             -1.7292505720       38.8177175841      -11.2951663352  W2        7442            0.0000000000
     22327      7443  TIP3      OH2            -0.9044705720       39.9890475841      -15.1407163352  W2        7443            0.0000000000
     22328      7443  TIP3      H1             -0.4303005720       40.5800375841      -15.7256263352  W2        7443            0.0000000000
     22329      7443  TIP3      H2             -1.6218305720       40.5193375841      -14.7937063352  W2        7443            0.0000000000
     22330      7444  TIP3      OH2             9.2643394280       43.5275275841       -5.0681363352  W2        7444            0.0000000000
     22331      7444  TIP3      H1              9.5878194280       42.8964975841       -5.7110863352  W2        7444            0.0000000000
     22332      7444  TIP3      H2              8.8242694280       42.9927475841       -4.4073963352  W2        7444            0.0000000000
     22333      7445  TIP3      OH2             6.0416294280       39.4550775841      -10.2840163352  W2        7445            0.0000000000
     22334      7445  TIP3      H1              5.1307394280       39.5117575841       -9.9954163352  W2        7445            0.0000000000
     22335      7445  TIP3      H2              6.5469194280       39.3946275841       -9.4732963352  W2        7445            0.0000000000
     22336      7446  TIP3      OH2             0.8699694280       41.0837075841      -11.4572563352  W2        7446            0.0000000000
     22337      7446  TIP3      H1             -0.0192305720       41.1832575841      -11.7972963352  W2        7446            0.0000000000
     22338      7446  TIP3      H2              1.1664594280       40.2420075841      -11.8034663352  W2        7446            0.0000000000
     22339      7447  TIP3      OH2             4.5231494280       41.0839675841      -13.8007963352  W2        7447            0.0000000000
     22340      7447  TIP3      H1              5.4546994280       41.2129675841      -13.6224863352  W2        7447            0.0000000000
     22341      7447  TIP3      H2              4.3081794280       41.7533975841      -14.4503263352  W2        7447            0.0000000000
     22342      7448  TIP3      OH2            10.4468194280       38.6897075841       -7.0198363352  W2        7448            0.0000000000
     22343      7448  TIP3      H1              9.7699794280       38.8210175841       -6.3558663352  W2        7448            0.0000000000
     22344      7448  TIP3      H2              9.9613094280       38.5346575841       -7.8300663352  W2        7448            0.0000000000
     22345      7449  TIP3      OH2             3.1971694280       42.2781875841      -16.2341863352  W2        7449            0.0000000000
     22346      7449  TIP3      H1              2.6546794280       41.8985675841      -16.9254263352  W2        7449            0.0000000000
     22347      7449  TIP3      H2              4.0306594280       42.4726575841      -16.6627763352  W2        7449            0.0000000000
     22348      7450  TIP3      OH2            13.7343294280       54.3612475841       -0.7430763352  W2        7450            0.0000000000
     22349      7450  TIP3      H1             13.9341994280       54.7854375841       -1.5775463352  W2        7450            0.0000000000
     22350      7450  TIP3      H2             14.3896994280       54.7050675841       -0.1360363352  W2        7450            0.0000000000
     22351      7451  TIP3      OH2             1.3323094280       46.8353775841       -1.1350263352  W2        7451            0.0000000000
     22352      7451  TIP3      H1              2.0645494280       47.0899675841       -0.5735763352  W2        7451            0.0000000000
     22353      7451  TIP3      H2              0.5521794280       47.0399175841       -0.6194863352  W2        7451            0.0000000000
     22354      7452  TIP3      OH2             7.3615994280       42.2423775841       -8.3970563352  W2        7452            0.0000000000
     22355      7452  TIP3      H1              7.9259394280       41.6960375841       -8.9440963352  W2        7452            0.0000000000
     22356      7452  TIP3      H2              7.2139394280       41.7205675841       -7.6082963352  W2        7452            0.0000000000
     22357      7453  TIP3      OH2             2.3635694280       38.3789875841      -11.9785763352  W2        7453            0.0000000000
     22358      7453  TIP3      H1              2.0465194280       37.4765175841      -12.0140363352  W2        7453            0.0000000000
     22359      7453  TIP3      H2              3.1449794280       38.3807275841      -12.5314163352  W2        7453            0.0000000000
     22360      7454  TIP3      OH2             5.9881894280       40.6309875841       -5.9830163352  W2        7454            0.0000000000
     22361      7454  TIP3      H1              5.1527194280       41.0849375841       -5.8727763352  W2        7454            0.0000000000
     22362      7454  TIP3      H2              6.5122494280       40.9068375841       -5.2310263352  W2        7454            0.0000000000
     22363      7455  TIP3      OH2             6.5324494280       46.8437575841      -14.2983763352  W2        7455            0.0000000000
     22364      7455  TIP3      H1              5.7875494280       46.3362875841      -14.6205863352  W2        7455            0.0000000000
     22365      7455  TIP3      H2              6.3981694280       46.8925575841      -13.3518963352  W2        7455            0.0000000000
     22366      7456  TIP3      OH2            13.6823394280       45.9765775841       -5.5116163352  W2        7456            0.0000000000
     22367      7456  TIP3      H1             14.3242194280       46.4332075841       -6.0553963352  W2        7456            0.0000000000
     22368      7456  TIP3      H2             12.8520294280       46.0898175841       -5.9742063352  W2        7456            0.0000000000
     22369      7457  TIP3      OH2            10.4301294280       39.6577475841      -16.0991163352  W2        7457            0.0000000000
     22370      7457  TIP3      H1              9.4915494280       39.7693075841      -16.2502363352  W2        7457            0.0000000000
     22371      7457  TIP3      H2             10.7273394280       40.5144375841      -15.7925463352  W2        7457            0.0000000000
     22372      7458  TIP3      OH2             8.0516594280       47.0280875841       -3.0614663352  W2        7458            0.0000000000
     22373      7458  TIP3      H1              7.7062694280       46.6463275841       -2.2545063352  W2        7458            0.0000000000
     22374      7458  TIP3      H2              7.8516694280       47.9614475841       -2.9901763352  W2        7458            0.0000000000
     22375      7459  TIP3      OH2            11.1484794280       41.5250175841      -14.4383763352  W2        7459            0.0000000000
     22376      7459  TIP3      H1             12.0403794280       41.3875175841      -14.1192563352  W2        7459            0.0000000000
     22377      7459  TIP3      H2             11.2048394280       42.3156275841      -14.9750263352  W2        7459            0.0000000000
     22378      7460  TIP3      OH2             1.6572794280       46.1387575841       -8.5285863352  W2        7460            0.0000000000
     22379      7460  TIP3      H1              2.4019994280       46.1363275841       -9.1299363352  W2        7460            0.0000000000
     22380      7460  TIP3      H2              1.7349394280       45.3151375841       -8.0470763352  W2        7460            0.0000000000
     22381      7461  TIP3      OH2             8.6578594280       48.3021875841      -15.2729163352  W2        7461            0.0000000000
     22382      7461  TIP3      H1              8.3626994280       49.1289775841      -14.8914363352  W2        7461            0.0000000000
     22383      7461  TIP3      H2              7.9548594280       47.6828775841      -15.0767763352  W2        7461            0.0000000000
     22384      7462  TIP3      OH2            -1.3347505720       44.5994475841       -3.2137363352  W2        7462            0.0000000000
     22385      7462  TIP3      H1             -1.1118905720       44.1814075841       -2.3819863352  W2        7462            0.0000000000
     22386      7462  TIP3      H2             -1.9367405720       43.9869475841       -3.6364563352  W2        7462            0.0000000000
     22387      7463  TIP3      OH2             5.6817394280       44.1164375841       -1.0007663352  W2        7463            0.0000000000
     22388      7463  TIP3      H1              5.3858194280       43.9507375841       -1.8958563352  W2        7463            0.0000000000
     22389      7463  TIP3      H2              6.6132594280       43.8964675841       -1.0113763352  W2        7463            0.0000000000
     22390      7464  TIP3      OH2            10.3020194280       49.4896375841       -3.1109663352  W2        7464            0.0000000000
     22391      7464  TIP3      H1              9.4014494280       49.6728975841       -3.3785763352  W2        7464            0.0000000000
     22392      7464  TIP3      H2             10.3361294280       49.7485675841       -2.1900863352  W2        7464            0.0000000000
     22393      7465  TIP3      OH2            16.0333494280       41.7344275841      -14.7437063352  W2        7465            0.0000000000
     22394      7465  TIP3      H1             15.4789794280       41.3382275841      -15.4159563352  W2        7465            0.0000000000
     22395      7465  TIP3      H2             16.1337094280       42.6449475841      -15.0213763352  W2        7465            0.0000000000
     22396      7466  TIP3      OH2            15.9965494280       47.5345975841       -1.9065563352  W2        7466            0.0000000000
     22397      7466  TIP3      H1             15.1453994280       47.7729775841       -2.2739163352  W2        7466            0.0000000000
     22398      7466  TIP3      H2             16.5868894280       47.5179175841       -2.6598463352  W2        7466            0.0000000000
     22399      7467  TIP3      OH2            14.3285194280       50.5204675841      -14.2784963352  W2        7467            0.0000000000
     22400      7467  TIP3      H1             13.9556294280       49.6948475841      -13.9694363352  W2        7467            0.0000000000
     22401      7467  TIP3      H2             14.6058694280       50.3374075841      -15.1761563352  W2        7467            0.0000000000
     22402      7468  TIP3      OH2            11.4889094280       45.3284175841       -7.2573063352  W2        7468            0.0000000000
     22403      7468  TIP3      H1             10.5605994280       45.0966075841       -7.2843763352  W2        7468            0.0000000000
     22404      7468  TIP3      H2             11.9400194280       44.5513975841       -7.5874263352  W2        7468            0.0000000000
     22405      7469  TIP3      OH2             4.0322194280       49.6565775841      -11.1244363352  W2        7469            0.0000000000
     22406      7469  TIP3      H1              4.5594394280       50.4300175841      -11.3245563352  W2        7469            0.0000000000
     22407      7469  TIP3      H2              3.1520694280       49.8814975841      -11.4260363352  W2        7469            0.0000000000
     22408      7470  TIP3      OH2            -0.2130105720       44.5189875841      -16.5371963352  W2        7470            0.0000000000
     22409      7470  TIP3      H1              0.4029794280       45.1457075841      -16.1577163352  W2        7470            0.0000000000
     22410      7470  TIP3      H2             -1.0747505720       44.8349675841      -16.2655463352  W2        7470            0.0000000000
     22411      7471  TIP3      OH2             5.4594494280       47.3195675841      -11.5480063352  W2        7471            0.0000000000
     22412      7471  TIP3      H1              5.2184494280       48.2450075841      -11.5064763352  W2        7471            0.0000000000
     22413      7471  TIP3      H2              4.7188094280       46.8606975841      -11.1516163352  W2        7471            0.0000000000
     22414      7472  TIP3      OH2             5.9741094280       51.4689275841       -5.2328963352  W2        7472            0.0000000000
     22415      7472  TIP3      H1              6.3365794280       52.3234875841       -5.4664563352  W2        7472            0.0000000000
     22416      7472  TIP3      H2              6.5056294280       51.1770875841       -4.4922663352  W2        7472            0.0000000000
     22417      7473  TIP3      OH2             4.1425294280       52.3413275841      -12.0027863352  W2        7473            0.0000000000
     22418      7473  TIP3      H1              3.1925794280       52.4470675841      -11.9514563352  W2        7473            0.0000000000
     22419      7473  TIP3      H2              4.4943394280       53.1620675841      -11.6580363352  W2        7473            0.0000000000
     22420      7474  TIP3      OH2             9.5181894280       47.5679975841       -5.5323363352  W2        7474            0.0000000000
     22421      7474  TIP3      H1              9.0923194280       47.3401675841       -4.7059363352  W2        7474            0.0000000000
     22422      7474  TIP3      H2             10.0987694280       46.8291775841       -5.7148063352  W2        7474            0.0000000000
     22423      7475  TIP3      OH2            11.7210794280       48.4970475841      -16.4584363352  W2        7475            0.0000000000
     22424      7475  TIP3      H1             12.0743894280       48.1170275841      -15.6540863352  W2        7475            0.0000000000
     22425      7475  TIP3      H2             10.7724294280       48.4035275841      -16.3715063352  W2        7475            0.0000000000
     22426      7476  TIP3      OH2            12.1766094280       52.1199475841       -3.0628563352  W2        7476            0.0000000000
     22427      7476  TIP3      H1             11.5749294280       51.5642375841       -3.5582263352  W2        7476            0.0000000000
     22428      7476  TIP3      H2             12.4579794280       52.7869275841       -3.6891163352  W2        7476            0.0000000000
     22429      7477  TIP3      OH2            16.2245194280       52.9762975841      -16.2574163352  W2        7477            0.0000000000
     22430      7477  TIP3      H1             16.9683094280       53.5623475841      -16.3972563352  W2        7477            0.0000000000
     22431      7477  TIP3      H2             15.5303294280       53.5448775841      -15.9241763352  W2        7477            0.0000000000
     22432      7478  TIP3      OH2             0.2991994280       39.3527175841       -3.6555963352  W2        7478            0.0000000000
     22433      7478  TIP3      H1             -0.5935705720       39.6912575841       -3.7231963352  W2        7478            0.0000000000
     22434      7478  TIP3      H2              0.2004794280       38.4973275841       -3.2375163352  W2        7478            0.0000000000
     22435      7479  TIP3      OH2            12.5870094280       47.1692475841      -14.2316463352  W2        7479            0.0000000000
     22436      7479  TIP3      H1             12.3097694280       46.4411775841      -13.6755363352  W2        7479            0.0000000000
     22437      7479  TIP3      H2             13.5143094280       47.2884475841      -14.0263863352  W2        7479            0.0000000000
     22438      7480  TIP3      OH2            -0.0496005720       51.1571575841       -5.2206563352  W2        7480            0.0000000000
     22439      7480  TIP3      H1              0.1674294280       50.2253975841       -5.2516863352  W2        7480            0.0000000000
     22440      7480  TIP3      H2              0.1967494280       51.4316575841       -4.3373763352  W2        7480            0.0000000000
     22441      7481  TIP3      OH2             5.8118594280       49.6086575841      -18.0114363352  W2        7481            0.0000000000
     22442      7481  TIP3      H1              6.0508394280       48.8604675841      -18.5585463352  W2        7481            0.0000000000
     22443      7481  TIP3      H2              5.5429894280       49.2208275841      -17.1786563352  W2        7481            0.0000000000
     22444      7482  TIP3      OH2             4.7489194280       49.1790375841      -15.5551763352  W2        7482            0.0000000000
     22445      7482  TIP3      H1              4.8957194280       48.6590175841      -14.7650863352  W2        7482            0.0000000000
     22446      7482  TIP3      H2              4.7460894280       50.0857975841      -15.2485863352  W2        7482            0.0000000000
     22447      7483  TIP3      OH2             1.2020294280       46.4313675841      -15.0446363352  W2        7483            0.0000000000
     22448      7483  TIP3      H1              0.5159594280       46.7836175841      -14.4776663352  W2        7483            0.0000000000
     22449      7483  TIP3      H2              1.7248194280       47.1943275841      -15.2912063352  W2        7483            0.0000000000
     22450      7484  TIP3      OH2             9.0335394280       39.0937475841       -4.7657363352  W2        7484            0.0000000000
     22451      7484  TIP3      H1              9.7323294280       39.1676175841       -4.1157663352  W2        7484            0.0000000000
     22452      7484  TIP3      H2              8.6526794280       38.2292475841       -4.6114463352  W2        7484            0.0000000000
     22453      7485  TIP3      OH2             9.8180294280       38.7459175841      -13.6685063352  W2        7485            0.0000000000
     22454      7485  TIP3      H1             10.0378594280       39.2174575841      -14.4719663352  W2        7485            0.0000000000
     22455      7485  TIP3      H2             10.3764294280       39.1401775841      -12.9984463352  W2        7485            0.0000000000
     22456      7486  TIP3      OH2             7.4866394280       50.8763975841      -14.8057563352  W2        7486            0.0000000000
     22457      7486  TIP3      H1              6.6702494280       51.3733675841      -14.7533263352  W2        7486            0.0000000000
     22458      7486  TIP3      H2              8.0162694280       51.3517475841      -15.4458763352  W2        7486            0.0000000000
     22459      7487  TIP3      OH2             7.0180194280       40.4737975841      -12.8336663352  W2        7487            0.0000000000
     22460      7487  TIP3      H1              7.8302794280       40.9781175841      -12.7874963352  W2        7487            0.0000000000
     22461      7487  TIP3      H2              6.7733194280       40.3287675841      -11.9197063352  W2        7487            0.0000000000
     22462      7488  TIP3      OH2             7.5536594280       41.4600675841       -3.6490063352  W2        7488            0.0000000000
     22463      7488  TIP3      H1              7.6726894280       42.0336075841       -2.8919663352  W2        7488            0.0000000000
     22464      7488  TIP3      H2              8.2091194280       40.7720075841       -3.5342263352  W2        7488            0.0000000000
     22465      7489  TIP3      OH2             7.9016894280       37.5550975841      -11.8955563352  W2        7489            0.0000000000
     22466      7489  TIP3      H1              7.5550394280       38.1721575841      -11.2511263352  W2        7489            0.0000000000
     22467      7489  TIP3      H2              8.5603794280       38.0556675841      -12.3770063352  W2        7489            0.0000000000
     22468      7490  TIP3      OH2             4.8249494280       51.9201175841      -14.8240663352  W2        7490            0.0000000000
     22469      7490  TIP3      H1              4.9858194280       52.7198675841      -15.3248063352  W2        7490            0.0000000000
     22470      7490  TIP3      H2              4.6277294280       52.2267175841      -13.9390063352  W2        7490            0.0000000000
     22471      7491  TIP3      OH2             3.5593894280       38.6180375841      -15.2083063352  W2        7491            0.0000000000
     22472      7491  TIP3      H1              3.4758694280       39.5063475841      -14.8616663352  W2        7491            0.0000000000
     22473      7491  TIP3      H2              4.4494194280       38.3527075841      -14.9766263352  W2        7491            0.0000000000
     22474      7492  TIP3      OH2            13.7582394280       39.3670975841       -2.8140363352  W2        7492            0.0000000000
     22475      7492  TIP3      H1             12.8418194280       39.6292675841       -2.9016663352  W2        7492            0.0000000000
     22476      7492  TIP3      H2             14.0937394280       39.3639975841       -3.7105063352  W2        7492            0.0000000000
     22477      7493  TIP3      OH2            12.3603394280       43.1171975841       -8.7183063352  W2        7493            0.0000000000
     22478      7493  TIP3      H1             11.5627794280       42.7022175841       -9.0468063352  W2        7493            0.0000000000
     22479      7493  TIP3      H2             12.8054494280       42.4265675841       -8.2272563352  W2        7493            0.0000000000
     22480      7494  TIP3      OH2             1.8179194280       49.0452575841      -16.1478563352  W2        7494            0.0000000000
     22481      7494  TIP3      H1              2.4100694280       49.7447375841      -15.8716163352  W2        7494            0.0000000000
     22482      7494  TIP3      H2              2.2772194280       48.6122075841      -16.8673963352  W2        7494            0.0000000000
     22483      7495  TIP3      OH2             0.1338394280       41.7095575841      -17.0319163352  W2        7495            0.0000000000
     22484      7495  TIP3      H1              0.0890994280       42.6488675841      -16.8532163352  W2        7495            0.0000000000
     22485      7495  TIP3      H2             -0.7538405720       41.4740475841      -17.3017063352  W2        7495            0.0000000000
     22486      7496  TIP3      OH2            13.4467994280       52.3734475841       -7.0959563352  W2        7496            0.0000000000
     22487      7496  TIP3      H1             13.2912294280       53.0518875841       -7.7530263352  W2        7496            0.0000000000
     22488      7496  TIP3      H2             14.3794394280       52.4453775841       -6.8928963352  W2        7496            0.0000000000
     22489      7497  TIP3      OH2             0.9420394280       36.4912175841       -8.3588163352  W2        7497            0.0000000000
     22490      7497  TIP3      H1              0.7130194280       36.5504675841       -9.2863163352  W2        7497            0.0000000000
     22491      7497  TIP3      H2              0.4993794280       35.6997675841       -8.0524063352  W2        7497            0.0000000000
     22492      7498  TIP3      OH2            -0.1276305720       50.4319275841      -12.1982363352  W2        7498            0.0000000000
     22493      7498  TIP3      H1             -0.9597705720       50.9041975841      -12.1710963352  W2        7498            0.0000000000
     22494      7498  TIP3      H2              0.4181994280       50.9416875841      -12.7969263352  W2        7498            0.0000000000
     22495      7499  TIP3      OH2            -0.8392605720       53.0442975841       -0.8684363352  W2        7499            0.0000000000
     22496      7499  TIP3      H1             -0.2990405720       52.8276975841       -0.1085163352  W2        7499            0.0000000000
     22497      7499  TIP3      H2             -1.3204605720       52.2388975841       -1.0581863352  W2        7499            0.0000000000
     22498      7500  TIP3      OH2             3.7580794280       51.9637375841        0.7519836648  W2        7500            0.0000000000
     22499      7500  TIP3      H1              4.5257994280       51.5048175841        1.0929036648  W2        7500            0.0000000000
     22500      7500  TIP3      H2              3.7366994280       51.7377175841       -0.1778963352  W2        7500            0.0000000000
     22501      7501  TIP3      OH2             7.8500394280       51.4717975841      -17.8728363352  W2        7501            0.0000000000
     22502      7501  TIP3      H1              7.2061394280       50.8406575841      -17.5514663352  W2        7501            0.0000000000
     22503      7501  TIP3      H2              8.6118694280       50.9405975841      -18.1044863352  W2        7501            0.0000000000
     22504      7502  TIP3      OH2            10.3349494280       50.3438475841       -0.5188663352  W2        7502            0.0000000000
     22505      7502  TIP3      H1              9.9838994280       49.4871475841       -0.2758263352  W2        7502            0.0000000000
     22506      7502  TIP3      H2             11.0612694280       50.4865175841        0.0880336648  W2        7502            0.0000000000
     22507      7503  TIP3      OH2            12.4543294280       51.2887875841      -17.6390363352  W2        7503            0.0000000000
     22508      7503  TIP3      H1             12.7373694280       50.4943075841      -17.1863463352  W2        7503            0.0000000000
     22509      7503  TIP3      H2             13.1941194280       51.5218875841      -18.1999263352  W2        7503            0.0000000000
     22510      7504  TIP3      OH2            -0.9323105720       46.8547075841        0.0859936648  W2        7504            0.0000000000
     22511      7504  TIP3      H1             -0.7882605720       45.9527775841       -0.2003363352  W2        7504            0.0000000000
     22512      7504  TIP3      H2             -1.7045705720       47.1409175841       -0.4017763352  W2        7504            0.0000000000
     22513      7505  TIP3      OH2             3.4090594280       47.1982775841      -17.7815463352  W2        7505            0.0000000000
     22514      7505  TIP3      H1              3.4734694280       46.4042375841      -17.2509063352  W2        7505            0.0000000000
     22515      7505  TIP3      H2              4.0619794280       47.0795575841      -18.4713463352  W2        7505            0.0000000000
     22516      7506  TIP3      OH2             5.7232994280       46.8245175841       -0.4813663352  W2        7506            0.0000000000
     22517      7506  TIP3      H1              5.3946794280       47.0953275841       -1.3386263352  W2        7506            0.0000000000
     22518      7506  TIP3      H2              5.8751194280       45.8834975841       -0.5688663352  W2        7506            0.0000000000
     22519      7507  TIP3      OH2             8.7613994280       48.2454475841      -18.0457463352  W2        7507            0.0000000000
     22520      7507  TIP3      H1              8.4928094280       48.4256575841      -17.1448563352  W2        7507            0.0000000000
     22521      7507  TIP3      H2              8.5549594280       47.3200675841      -18.1771663352  W2        7507            0.0000000000
     22522      7508  TIP3      OH2            11.4578194280       46.7402475841       -3.0981363352  W2        7508            0.0000000000
     22523      7508  TIP3      H1             12.2032994280       47.3286175841       -3.2177363352  W2        7508            0.0000000000
     22524      7508  TIP3      H2             10.7004994280       47.3222175841       -3.0348263352  W2        7508            0.0000000000
     22525      7509  TIP3      OH2            -0.0996605720       44.0550375841       -0.4940763352  W2        7509            0.0000000000
     22526      7509  TIP3      H1              0.3084594280       43.1976975841       -0.6150163352  W2        7509            0.0000000000
     22527      7509  TIP3      H2             -0.3599005720       44.0691675841        0.4269536648  W2        7509            0.0000000000
     22528      7510  TIP3      OH2             4.5584394280       45.1708975841      -15.4757463352  W2        7510            0.0000000000
     22529      7510  TIP3      H1              4.0986394280       44.6867275841      -14.7898963352  W2        7510            0.0000000000
     22530      7510  TIP3      H2              4.8133094280       44.5024375841      -16.1116963352  W2        7510            0.0000000000
     22531      7511  TIP3      OH2             3.8473694280       43.0636075841       -3.1197863352  W2        7511            0.0000000000
     22532      7511  TIP3      H1              3.2289794280       43.7382675841       -2.8393163352  W2        7511            0.0000000000
     22533      7511  TIP3      H2              4.1914894280       43.3849975841       -3.9531663352  W2        7511            0.0000000000
     22534      7512  TIP3      OH2             5.6294794280       43.4140775841      -17.2134263352  W2        7512            0.0000000000
     22535      7512  TIP3      H1              5.4489794280       43.2591975841      -18.1405963352  W2        7512            0.0000000000
     22536      7512  TIP3      H2              6.5795294280       43.5219475841      -17.1686363352  W2        7512            0.0000000000
     22537      7513  TIP3      OH2             8.8671894280       45.5351375841        0.1576936648  W2        7513            0.0000000000
     22538      7513  TIP3      H1              9.8203094280       45.6190475841        0.1302936648  W2        7513            0.0000000000
     22539      7513  TIP3      H2              8.7066494280       44.8233175841        0.7771836648  W2        7513            0.0000000000
     22540      7514  TIP3      OH2            15.0193094280       45.7684975841      -17.7676163352  W2        7514            0.0000000000
     22541      7514  TIP3      H1             14.7457894280       45.3440475841      -18.5807863352  W2        7514            0.0000000000
     22542      7514  TIP3      H2             15.0587194280       46.6999475841      -17.9845763352  W2        7514            0.0000000000
     22543      7515  TIP3      OH2             4.1867394280       40.4186875841       -2.0374763352  W2        7515            0.0000000000
     22544      7515  TIP3      H1              4.3368294280       39.6898175841       -2.6395063352  W2        7515            0.0000000000
     22545      7515  TIP3      H2              4.1889794280       41.1958575841       -2.5962563352  W2        7515            0.0000000000
     22546      7516  TIP3      OH2             4.5993094280       38.7882675841       -4.5447363352  W2        7516            0.0000000000
     22547      7516  TIP3      H1              5.1350594280       39.2399375841       -5.1968063352  W2        7516            0.0000000000
     22548      7516  TIP3      H2              3.7472694280       38.6802475841       -4.9673263352  W2        7516            0.0000000000
     22549      7517  TIP3      OH2             6.1811494280       44.2278875841       -4.3052163352  W2        7517            0.0000000000
     22550      7517  TIP3      H1              6.9316294280       44.0716375841       -4.8784363352  W2        7517            0.0000000000
     22551      7517  TIP3      H2              5.8419794280       45.0795475841       -4.5806663352  W2        7517            0.0000000000
     22552      7518  TIP3      OH2            10.5967694280       42.0430675841        0.7233136648  W2        7518            0.0000000000
     22553      7518  TIP3      H1             10.7888994280       41.1120075841        0.6117636648  W2        7518            0.0000000000
     22554      7518  TIP3      H2             11.4543994280       42.4680175841        0.7128536648  W2        7518            0.0000000000
     22555      7519  TIP3      OH2            11.9134894280       44.8315875841       -1.1994163352  W2        7519            0.0000000000
     22556      7519  TIP3      H1             11.6319894280       45.5410475841       -1.7770363352  W2        7519            0.0000000000
     22557      7519  TIP3      H2             12.8559194280       44.7588875841       -1.3502963352  W2        7519            0.0000000000
     22558      7520  TIP3      OH2             2.6653694280       41.6170375841       -0.1259163352  W2        7520            0.0000000000
     22559      7520  TIP3      H1              1.8982694280       41.0845175841       -0.3361563352  W2        7520            0.0000000000
     22560      7520  TIP3      H2              3.3442694280       41.3070775841       -0.7252863352  W2        7520            0.0000000000
     22561      7521  TIP3      OH2             5.4048594280       36.2448375841       -4.1133763352  W2        7521            0.0000000000
     22562      7521  TIP3      H1              5.3068194280       37.1911575841       -4.2187563352  W2        7521            0.0000000000
     22563      7521  TIP3      H2              4.6624794280       35.8722175841       -4.5890263352  W2        7521            0.0000000000
     22564      7522  TIP3      OH2             6.6689094280       40.5663775841       -0.5495363352  W2        7522            0.0000000000
     22565      7522  TIP3      H1              6.4334494280       40.3470475841        0.3519536648  W2        7522            0.0000000000
     22566      7522  TIP3      H2              5.8855994280       40.3594975841       -1.0592863352  W2        7522            0.0000000000
     22567      7523  TIP3      OH2             9.3845694280       39.6937275841       -1.4741863352  W2        7523            0.0000000000
     22568      7523  TIP3      H1              8.4371094280       39.7256975841       -1.3418563352  W2        7523            0.0000000000
     22569      7523  TIP3      H2              9.6972394280       39.0684375841       -0.8203663352  W2        7523            0.0000000000
     22570      7524  TIP3      OH2            11.0187194280       38.3278375841        0.5310036648  W2        7524            0.0000000000
     22571      7524  TIP3      H1             10.9218994280       37.3755675841        0.5251936648  W2        7524            0.0000000000
     22572      7524  TIP3      H2             10.6970294280       38.5965175841        1.3915536648  W2        7524            0.0000000000
     22573      7525  TIP3      OH2             0.8456494280       39.5374175841       -0.4214463352  W2        7525            0.0000000000
     22574      7525  TIP3      H1              1.0573894280       38.8310275841       -1.0316963352  W2        7525            0.0000000000
     22575      7525  TIP3      H2              0.7343994280       39.1000175841        0.4226736648  W2        7525            0.0000000000
     22576      7526  TIP3      OH2             5.6266694280       35.5385775841       -1.4420963352  W2        7526            0.0000000000
     22577      7526  TIP3      H1              6.3385094280       34.8987975841       -1.4561863352  W2        7526            0.0000000000
     22578      7526  TIP3      H2              5.5257094280       35.8054075841       -2.3557863352  W2        7526            0.0000000000
     22579      7527  TIP3      OH2             5.9804194280       37.2214175841        0.6115336648  W2        7527            0.0000000000
     22580      7527  TIP3      H1              5.8486394280       36.7457975841       -0.2086163352  W2        7527            0.0000000000
     22581      7527  TIP3      H2              5.3811594280       37.9657775841        0.5562436648  W2        7527            0.0000000000
     22582      7528  TIP3      OH2             5.5266494280       54.1044475841      -16.2120663352  W2        7528            0.0000000000
     22583      7528  TIP3      H1              6.4597194280       54.2623175841      -16.0682263352  W2        7528            0.0000000000
     22584      7528  TIP3      H2              5.2625294280       54.7797475841      -16.8369163352  W2        7528            0.0000000000
     22585      7529  TIP3      OH2            -0.9048605720       48.7408275841      -16.7292563352  W2        7529            0.0000000000
     22586      7529  TIP3      H1              0.0090594280       48.8197175841      -16.4558663352  W2        7529            0.0000000000
     22587      7529  TIP3      H2             -0.8975505720       48.0537875841      -17.3956963352  W2        7529            0.0000000000
     22588      7530  TIP3      OH2            -2.2558005720       54.1336775841      -11.6518663352  W2        7530            0.0000000000
     22589      7530  TIP3      H1             -2.9030905720       53.6718475841      -12.1847463352  W2        7530            0.0000000000
     22590      7530  TIP3      H2             -1.9013405720       53.4620075841      -11.0692463352  W2        7530            0.0000000000
     22591      7531  TIP3      OH2            -1.3858805720       52.2143775841       -9.8472463352  W2        7531            0.0000000000
     22592      7531  TIP3      H1             -1.7202005720       51.3341075841       -9.6752263352  W2        7531            0.0000000000
     22593      7531  TIP3      H2             -1.1636405720       52.5598775841       -8.9826863352  W2        7531            0.0000000000
     22594      7532  TIP3      OH2            16.1625994280       53.0240175841       -6.8667663352  W2        7532            0.0000000000
     22595      7532  TIP3      H1             16.1412694280       53.2088575841       -5.9278263352  W2        7532            0.0000000000
     22596      7532  TIP3      H2             16.8532194280       53.5924175841       -7.2076263352  W2        7532            0.0000000000
     22597      7533  TIP3      OH2            15.7258894280       52.5911275841       -3.9448563352  W2        7533            0.0000000000
     22598      7533  TIP3      H1             15.2387594280       51.8555375841       -4.3161163352  W2        7533            0.0000000000
     22599      7533  TIP3      H2             16.2751594280       52.1975175841       -3.2669163352  W2        7533            0.0000000000
     22600      7534  TIP3      OH2            14.1766194280       48.3809375841        0.6931736648  W2        7534            0.0000000000
     22601      7534  TIP3      H1             13.3107294280       48.2759075841        1.0874036648  W2        7534            0.0000000000
     22602      7534  TIP3      H2             14.5532094280       49.1392675841        1.1396436648  W2        7534            0.0000000000
     22603      7535  TIP3      OH2            15.4775894280       46.6373075841      -13.7925763352  W2        7535            0.0000000000
     22604      7535  TIP3      H1             16.3277294280       47.0583975841      -13.6654163352  W2        7535            0.0000000000
     22605      7535  TIP3      H2             15.4830994280       45.8973175841      -13.1854363352  W2        7535            0.0000000000
     22606      7536  TIP3      OH2            15.8721494280       44.6910475841      -11.9690063352  W2        7536            0.0000000000
     22607      7536  TIP3      H1             15.1456094280       44.2113075841      -11.5712463352  W2        7536            0.0000000000
     22608      7536  TIP3      H2             16.4534794280       44.8965175841      -11.2368463352  W2        7536            0.0000000000
     22609      7537  TIP3      OH2            15.6312694280       47.4757975841       -7.0212463352  W2        7537            0.0000000000
     22610      7537  TIP3      H1             16.4646894280       47.0977975841       -7.3018863352  W2        7537            0.0000000000
     22611      7537  TIP3      H2             15.7432994280       48.4189175841       -7.1403363352  W2        7537            0.0000000000
     22612      7538  TIP3      OH2            14.1174994280       50.3535475841       -4.7144063352  W2        7538            0.0000000000
     22613      7538  TIP3      H1             13.4700294280       50.6786975841       -4.0888863352  W2        7538            0.0000000000
     22614      7538  TIP3      H2             13.5998994280       49.9133175841       -5.3885763352  W2        7538            0.0000000000
     22615      7539  TIP3      OH2            16.1404594280       44.5918975841      -15.5778763352  W2        7539            0.0000000000
     22616      7539  TIP3      H1             15.6185694280       44.9483075841      -16.2967863352  W2        7539            0.0000000000
     22617      7539  TIP3      H2             16.1073794280       45.2666775841      -14.8997863352  W2        7539            0.0000000000
     22618      7540  TIP3      OH2            14.4893594280       41.8314575841      -17.0271663352  W2        7540            0.0000000000
     22619      7540  TIP3      H1             14.5857994280       42.4981575841      -17.7071963352  W2        7540            0.0000000000
     22620      7540  TIP3      H2             14.3493194280       41.0160875841      -17.5086163352  W2        7540            0.0000000000
     22621      7541  TIP3      OH2            13.6588294280       43.2116975841      -11.4061363352  W2        7541            0.0000000000
     22622      7541  TIP3      H1             13.5087094280       42.2665575841      -11.4263563352  W2        7541            0.0000000000
     22623      7541  TIP3      H2             13.3052794280       43.4928375841      -10.5622263352  W2        7541            0.0000000000
     22624      7542  TIP3      OH2            -1.3059305720       45.2899175841       -7.3957563352  W2        7542            0.0000000000
     22625      7542  TIP3      H1             -1.1216405720       45.2080875841       -8.3314663352  W2        7542            0.0000000000
     22626      7542  TIP3      H2             -0.4566405720       45.1656175841       -6.9721163352  W2        7542            0.0000000000
     22627      7543  TIP3      OH2            14.5151194280       45.1820275841       -1.7673063352  W2        7543            0.0000000000
     22628      7543  TIP3      H1             15.0978494280       44.4472575841       -1.5755863352  W2        7543            0.0000000000
     22629      7543  TIP3      H2             15.0790494280       45.9540575841       -1.7207263352  W2        7543            0.0000000000
     22630      7544  TIP3      OH2            16.0118294280       43.0846075841       -1.0827663352  W2        7544            0.0000000000
     22631      7544  TIP3      H1             15.1484994280       42.7058175841       -1.2482963352  W2        7544            0.0000000000
     22632      7544  TIP3      H2             16.6161994280       42.3460875841       -1.1571863352  W2        7544            0.0000000000
     22633      7545  TIP3      OH2            13.7367394280       39.2394375841      -17.9096163352  W2        7545            0.0000000000
     22634      7545  TIP3      H1             14.3473194280       38.8681175841      -17.2727963352  W2        7545            0.0000000000
     22635      7545  TIP3      H2             12.8998894280       38.8181275841      -17.7136163352  W2        7545            0.0000000000
     22636      7546  TIP3      OH2            13.3693094280       40.7942775841      -12.9436263352  W2        7546            0.0000000000
     22637      7546  TIP3      H1             13.6490194280       39.8873175841      -12.8194563352  W2        7546            0.0000000000
     22638      7546  TIP3      H2             14.1284794280       41.2284275841      -13.3327063352  W2        7546            0.0000000000
     22639      7547  TIP3      OH2            13.9811394280       41.3760175841       -7.5077363352  W2        7547            0.0000000000
     22640      7547  TIP3      H1             14.9139394280       41.5880075841       -7.5421363352  W2        7547            0.0000000000
     22641      7547  TIP3      H2             13.7458894280       41.4772275841       -6.5854363352  W2        7547            0.0000000000
     22642      7548  TIP3      OH2            14.0103294280       42.1125475841       -4.7317963352  W2        7548            0.0000000000
     22643      7548  TIP3      H1             13.1674594280       42.3805875841       -4.3658163352  W2        7548            0.0000000000
     22644      7548  TIP3      H2             14.4527594280       42.9347375841       -4.9426863352  W2        7548            0.0000000000
     22645      7549  TIP3      OH2            -1.7084505720       40.5604175841       -1.2548763352  W2        7549            0.0000000000
     22646      7549  TIP3      H1             -0.7889605720       40.4382475841       -1.0185663352  W2        7549            0.0000000000
     22647      7549  TIP3      H2             -2.1580005720       39.8103875841       -0.8655263352  W2        7549            0.0000000000
     22648      7550  TIP3      OH2            16.2934894280       36.0925675841        0.6217036648  W2        7550            0.0000000000
     22649      7550  TIP3      H1             16.6431894280       35.4389175841        0.0161736648  W2        7550            0.0000000000
     22650      7550  TIP3      H2             16.4404394280       36.9299775841        0.1819636648  W2        7550            0.0000000000
     22651      7551  TIP3      OH2            13.9827894280       38.0572075841      -12.8954263352  W2        7551            0.0000000000
     22652      7551  TIP3      H1             14.1652894280       37.6083575841      -12.0699263352  W2        7551            0.0000000000
     22653      7551  TIP3      H2             13.3830794280       37.4726475841      -13.3589663352  W2        7551            0.0000000000
     22654      7552  TIP3      OH2            -0.4872005720       38.8725775841       -8.3635863352  W2        7552            0.0000000000
     22655      7552  TIP3      H1             -0.0420405720       38.0808275841       -8.0616163352  W2        7552            0.0000000000
     22656      7552  TIP3      H2             -0.0209005720       39.5890975841       -7.9330263352  W2        7552            0.0000000000
     22657      7553  TIP3      OH2            -2.1831705720       41.8718775841       -7.2945663352  W2        7553            0.0000000000
     22658      7553  TIP3      H1             -1.6911905720       41.6509275841       -8.0853663352  W2        7553            0.0000000000
     22659      7553  TIP3      H2             -1.8210805720       42.7122175841       -7.0136163352  W2        7553            0.0000000000
     22660      7554  TIP3      OH2            15.8132094280       38.2020275841       -1.0291663352  W2        7554            0.0000000000
     22661      7554  TIP3      H1             14.8957794280       38.4727375841       -1.0648163352  W2        7554            0.0000000000
     22662      7554  TIP3      H2             15.9361494280       37.6668675841       -1.8131963352  W2        7554            0.0000000000
     22663      7555  TIP3      OH2            15.8494094280       38.1250175841      -16.3673963352  W2        7555            0.0000000000
     22664      7555  TIP3      H1             16.2616694280       37.4035875841      -16.8425963352  W2        7555            0.0000000000
     22665      7555  TIP3      H2             16.5310594280       38.7944775841      -16.3089663352  W2        7555            0.0000000000
     22666      7556  TIP3      OH2            -1.8695205720       38.1297875841      -13.2403263352  W2        7556            0.0000000000
     22667      7556  TIP3      H1             -2.7946805720       38.3384475841      -13.3697763352  W2        7556            0.0000000000
     22668      7556  TIP3      H2             -1.4155305720       38.6138675841      -13.9300963352  W2        7556            0.0000000000
     22669      7557  TIP3      OH2            12.9011994280       53.1139575841      -11.2945863352  W2        7557            0.0000000000
     22670      7557  TIP3      H1             13.5534894280       52.7661675841      -11.9026763352  W2        7557            0.0000000000
     22671      7557  TIP3      H2             13.4115794280       53.6022775841      -10.6486163352  W2        7557            0.0000000000
     22672      7558  TIP3      OH2            -1.9059805720       36.8676875841       -4.8960763352  W2        7558            0.0000000000
     22673      7558  TIP3      H1             -2.5709305720       36.6217175841       -4.2529863352  W2        7558            0.0000000000
     22674      7558  TIP3      H2             -2.3488505720       37.4897275841       -5.4732763352  W2        7558            0.0000000000
     22675      7559  TIP3      OH2             0.2859494280       50.0430975841       -0.7514963352  W2        7559            0.0000000000
     22676      7559  TIP3      H1             -0.5348005720       50.2177475841       -1.2120263352  W2        7559            0.0000000000
     22677      7559  TIP3      H2              0.0337294280       49.9695675841        0.1689436648  W2        7559            0.0000000000
     22678      7560  TIP3      OH2             3.2402394280       51.0172175841       -4.4930963352  W2        7560            0.0000000000
     22679      7560  TIP3      H1              2.8153494280       51.8270675841       -4.7756363352  W2        7560            0.0000000000
     22680      7560  TIP3      H2              4.1445194280       51.1026275841       -4.7951163352  W2        7560            0.0000000000
     22681      7561  TIP3      OH2             7.5513794280       52.4162175841       -1.5337263352  W2        7561            0.0000000000
     22682      7561  TIP3      H1              7.7361294280       52.0828275841       -0.6556963352  W2        7561            0.0000000000
     22683      7561  TIP3      H2              8.3978294280       52.7260775841       -1.8558063352  W2        7561            0.0000000000
     22684      7562  TIP3      OH2             9.8964194280       53.7021075841       -2.2895863352  W2        7562            0.0000000000
     22685      7562  TIP3      H1             10.5733094280       53.0693375841       -2.5296663352  W2        7562            0.0000000000
     22686      7562  TIP3      H2             10.2182994280       54.1031575841       -1.4822563352  W2        7562            0.0000000000
     22687      7563  TIP3      OH2            14.8137994280       36.2916575841       -3.2100863352  W2        7563            0.0000000000
     22688      7563  TIP3      H1             14.0011494280       36.6166875841       -3.5976163352  W2        7563            0.0000000000
     22689      7563  TIP3      H2             15.0466494280       35.5315075841       -3.7431763352  W2        7563            0.0000000000
     22690      7564  TIP3      OH2             0.6419094280       54.2736075841       -4.4455663352  W2        7564            0.0000000000
     22691      7564  TIP3      H1             -0.0784505720       54.7137075841       -4.8967963352  W2        7564            0.0000000000
     22692      7564  TIP3      H2              0.2763094280       54.0230775841       -3.5971663352  W2        7564            0.0000000000
     22693      7565  TIP3      OH2             3.1091694280       53.8739975841       -5.4158463352  W2        7565            0.0000000000
     22694      7565  TIP3      H1              2.2443894280       53.9458475841       -5.0118363352  W2        7565            0.0000000000
     22695      7565  TIP3      H2              3.0540694280       54.4207275841       -6.1995963352  W2        7565            0.0000000000
     22696      7566  TIP3      OH2             7.8197294280       53.7618875841       -6.2402463352  W2        7566            0.0000000000
     22697      7566  TIP3      H1              7.3631294280       54.2908575841       -6.8944063352  W2        7566            0.0000000000
     22698      7566  TIP3      H2              7.9825294280       54.3650275841       -5.5150163352  W2        7566            0.0000000000
     22699      7567  TIP3      OH2            10.1473594280       52.6398475841       -5.2952163352  W2        7567            0.0000000000
     22700      7567  TIP3      H1              9.2427294280       52.8048675841       -5.5610063352  W2        7567            0.0000000000
     22701      7567  TIP3      H2             10.5762194280       53.4930675841       -5.3608763352  W2        7567            0.0000000000
     22702      7568  TIP3      OH2            12.7515494280       54.2097575841       -5.0004363352  W2        7568            0.0000000000
     22703      7568  TIP3      H1             12.5697494280       55.1256475841       -5.2109463352  W2        7568            0.0000000000
     22704      7568  TIP3      H2             12.9283294280       53.7994675841       -5.8469763352  W2        7568            0.0000000000
     22705      7569  TIP3      OH2             0.0567194280       52.8968575841       -7.5353863352  W2        7569            0.0000000000
     22706      7569  TIP3      H1              0.0383194280       52.4713675841       -6.6781563352  W2        7569            0.0000000000
     22707      7569  TIP3      H2              0.8615094280       52.5783575841       -7.9441663352  W2        7569            0.0000000000
     22708      7570  TIP3      OH2             2.1980294280       51.6067275841       -8.8803963352  W2        7570            0.0000000000
     22709      7570  TIP3      H1              1.9790994280       50.6904675841       -8.7107963352  W2        7570            0.0000000000
     22710      7570  TIP3      H2              3.0222494280       51.7467675841       -8.4142563352  W2        7570            0.0000000000
     22711      7571  TIP3      OH2             4.7352794280       52.0766575841       -8.0315963352  W2        7571            0.0000000000
     22712      7571  TIP3      H1              4.9478494280       51.1885575841       -8.3185063352  W2        7571            0.0000000000
     22713      7571  TIP3      H2              4.7997894280       52.0424275841       -7.0771963352  W2        7571            0.0000000000
     22714      7572  TIP3      OH2             8.2436494280       37.7407175841       -8.8872663352  W2        7572            0.0000000000
     22715      7572  TIP3      H1              7.5693294280       37.1112775841       -8.6316863352  W2        7572            0.0000000000
     22716      7572  TIP3      H2              8.8075694280       37.2566075841       -9.4904763352  W2        7572            0.0000000000
     22717      7573  TIP3      OH2            13.3863694280       35.8481175841       -8.7745563352  W2        7573            0.0000000000
     22718      7573  TIP3      H1             13.9901294280       36.3956575841       -9.2764563352  W2        7573            0.0000000000
     22719      7573  TIP3      H2             12.5165694280       36.1671575841       -9.0151463352  W2        7573            0.0000000000
     22720      7574  TIP3      OH2            15.1134094280       36.9869875841      -10.4414663352  W2        7574            0.0000000000
     22721      7574  TIP3      H1             15.7251594280       36.4725575841      -10.9681063352  W2        7574            0.0000000000
     22722      7574  TIP3      H2             15.4957494280       37.8641975841      -10.4180263352  W2        7574            0.0000000000
     22723      7575  TIP3      OH2             0.5703994280       36.3747475841      -11.0652763352  W2        7575            0.0000000000
     22724      7575  TIP3      H1             -0.2066205720       36.1402375841      -11.5726863352  W2        7575            0.0000000000
     22725      7575  TIP3      H2              1.1007594280       35.5779575841      -11.0564763352  W2        7575            0.0000000000
     22726      7576  TIP3      OH2            -0.5932605720       36.1725575841      -15.2616663352  W2        7576            0.0000000000
     22727      7576  TIP3      H1             -0.1541905720       36.7836075841      -15.8533163352  W2        7576            0.0000000000
     22728      7576  TIP3      H2             -1.2270205720       36.7109675841      -14.7876663352  W2        7576            0.0000000000
     22729      7577  TIP3      OH2             5.1496594280       36.3014575841      -11.2519663352  W2        7577            0.0000000000
     22730      7577  TIP3      H1              6.0239994280       36.6898875841      -11.2815363352  W2        7577            0.0000000000
     22731      7577  TIP3      H2              5.0137394280       36.0862375841      -10.3292463352  W2        7577            0.0000000000
     22732      7578  TIP3      OH2            10.7064994280       36.3314375841       -9.6027963352  W2        7578            0.0000000000
     22733      7578  TIP3      H1             10.7826594280       36.4265975841      -10.5521963352  W2        7578            0.0000000000
     22734      7578  TIP3      H2             10.4314194280       35.4237275841       -9.4738863352  W2        7578            0.0000000000
     22735      7579  TIP3      OH2            12.0597594280       36.3572175841      -13.9102963352  W2        7579            0.0000000000
     22736      7579  TIP3      H1             11.3568694280       36.9721375841      -14.1201563352  W2        7579            0.0000000000
     22737      7579  TIP3      H2             11.6148994280       35.5198875841      -13.7792063352  W2        7579            0.0000000000
     22738      7580  TIP3      OH2            -0.6923105720       52.1207775841      -14.3641563352  W2        7580            0.0000000000
     22739      7580  TIP3      H1             -1.3773205720       52.0826675841      -15.0316463352  W2        7580            0.0000000000
     22740      7580  TIP3      H2             -0.6885905720       53.0335375841      -14.0759463352  W2        7580            0.0000000000
     22741      7581  TIP3      OH2             1.2676494280       38.0887075841      -16.8192563352  W2        7581            0.0000000000
     22742      7581  TIP3      H1              1.7589894280       37.4589475841      -17.3467063352  W2        7581            0.0000000000
     22743      7581  TIP3      H2              1.8912794280       38.3846475841      -16.1561363352  W2        7581            0.0000000000
     22744      7582  TIP3      OH2             6.2936594280       38.3818575841      -14.3622063352  W2        7582            0.0000000000
     22745      7582  TIP3      H1              6.4717894280       37.7351775841      -13.6793463352  W2        7582            0.0000000000
     22746      7582  TIP3      H2              6.2402794280       39.2156275841      -13.8950963352  W2        7582            0.0000000000
     22747      7583  TIP3      OH2             8.1720394280       53.3302675841      -15.9665363352  W2        7583            0.0000000000
     22748      7583  TIP3      H1              9.0380594280       53.6970075841      -16.1447163352  W2        7583            0.0000000000
     22749      7583  TIP3      H2              7.9253194280       52.8910675841      -16.7804563352  W2        7583            0.0000000000
     22750      7584  TIP3      OH2            14.8809994280       52.8932975841      -13.2874263352  W2        7584            0.0000000000
     22751      7584  TIP3      H1             14.6867094280       52.1455075841      -13.8524663352  W2        7584            0.0000000000
     22752      7584  TIP3      H2             14.8420094280       53.6513075841      -13.8706363352  W2        7584            0.0000000000
     22753      7585  TIP3      OH2             0.5281994280       36.8889375841       -1.5476563352  W2        7585            0.0000000000
     22754      7585  TIP3      H1              0.1620194280       36.1231975841       -1.1051863352  W2        7585            0.0000000000
     22755      7585  TIP3      H2              1.4410494280       36.9179575841       -1.2611463352  W2        7585            0.0000000000
     22756      7586  TIP3      OH2             2.5012794280       36.2393775841       -0.0119463352  W2        7586            0.0000000000
     22757      7586  TIP3      H1              3.3996394280       35.9653975841       -0.1966063352  W2        7586            0.0000000000
     22758      7586  TIP3      H2              2.1145894280       35.4969775841        0.4523136648  W2        7586            0.0000000000
     22759      7587  TIP3      OH2             1.1258094280       53.0408575841      -17.3389463352  W2        7587            0.0000000000
     22760      7587  TIP3      H1              0.8582694280       53.3271475841      -16.4656363352  W2        7587            0.0000000000
     22761      7587  TIP3      H2              1.8970694280       52.4947775841      -17.1866963352  W2        7587            0.0000000000
     22762      7588  TIP3      OH2            10.9225094280       35.5719075841        0.1703336648  W2        7588            0.0000000000
     22763      7588  TIP3      H1             10.9992294280       35.1459775841        1.0241036648  W2        7588            0.0000000000
     22764      7588  TIP3      H2             11.8161694280       35.5853775841       -0.1723163352  W2        7588            0.0000000000
     22765      7589  TIP3      OH2            14.0986194280       51.6445375841       -1.1372463352  W2        7589            0.0000000000
     22766      7589  TIP3      H1             13.3168094280       51.4583375841       -1.6571863352  W2        7589            0.0000000000
     22767      7589  TIP3      H2             14.0266094280       52.5739675841       -0.9199963352  W2        7589            0.0000000000
     22768      7590  TIP3      OH2            28.5046594280       45.5309775841      -11.1065263352  W2        7590            0.0000000000
     22769      7590  TIP3      H1             28.5937694280       46.4747975841      -11.2388163352  W2        7590            0.0000000000
     22770      7590  TIP3      H2             27.8664194280       45.2556175841      -11.7645863352  W2        7590            0.0000000000
     22771      7591  TIP3      OH2            27.4377894280       44.7860475841       -7.6877063352  W2        7591            0.0000000000
     22772      7591  TIP3      H1             27.3995394280       44.1396775841       -6.9827463352  W2        7591            0.0000000000
     22773      7591  TIP3      H2             27.1154394280       44.3194875841       -8.4588363352  W2        7591            0.0000000000
     22774      7592  TIP3      OH2            19.8062894280       44.4002575841       -6.0947163352  W2        7592            0.0000000000
     22775      7592  TIP3      H1             19.8474994280       43.7745875841       -5.3714763352  W2        7592            0.0000000000
     22776      7592  TIP3      H2             20.5090594280       45.0241175841       -5.9126763352  W2        7592            0.0000000000
     22777      7593  TIP3      OH2            31.1438094280       47.7250875841       -9.3861963352  W2        7593            0.0000000000
     22778      7593  TIP3      H1             30.7030794280       47.0046875841       -8.9356363352  W2        7593            0.0000000000
     22779      7593  TIP3      H2             31.1307794280       48.4458075841       -8.7564263352  W2        7593            0.0000000000
     22780      7594  TIP3      OH2            20.7295994280       48.8501475841       -7.5598063352  W2        7594            0.0000000000
     22781      7594  TIP3      H1             20.3601194280       48.0481975841       -7.9293763352  W2        7594            0.0000000000
     22782      7594  TIP3      H2             21.6707094280       48.6816375841       -7.5134663352  W2        7594            0.0000000000
     22783      7595  TIP3      OH2            17.3396494280       42.5104075841      -12.1669263352  W2        7595            0.0000000000
     22784      7595  TIP3      H1             16.8919894280       43.3562775841      -12.1852763352  W2        7595            0.0000000000
     22785      7595  TIP3      H2             16.7787694280       41.9308275841      -12.6824163352  W2        7595            0.0000000000
     22786      7596  TIP3      OH2            18.0502594280       44.6723675841      -10.0411263352  W2        7596            0.0000000000
     22787      7596  TIP3      H1             18.2636094280       43.9025275841       -9.5138263352  W2        7596            0.0000000000
     22788      7596  TIP3      H2             18.7880194280       44.7620375841      -10.6443663352  W2        7596            0.0000000000
     22789      7597  TIP3      OH2            28.2553594280       52.8292575841       -9.1741563352  W2        7597            0.0000000000
     22790      7597  TIP3      H1             28.8749994280       52.1527275841       -9.4472363352  W2        7597            0.0000000000
     22791      7597  TIP3      H2             28.0470994280       52.6113375841       -8.2656663352  W2        7597            0.0000000000
     22792      7598  TIP3      OH2            25.8272294280       47.2181875841       -7.2816063352  W2        7598            0.0000000000
     22793      7598  TIP3      H1             26.1310194280       46.5323275841       -7.8761963352  W2        7598            0.0000000000
     22794      7598  TIP3      H2             26.5486294280       47.3370575841       -6.6638063352  W2        7598            0.0000000000
     22795      7599  TIP3      OH2            34.4902094280       38.8197175841       -6.4209863352  W2        7599            0.0000000000
     22796      7599  TIP3      H1             34.5394294280       39.4298375841       -5.6850763352  W2        7599            0.0000000000
     22797      7599  TIP3      H2             34.9157194280       39.2808075841       -7.1438763352  W2        7599            0.0000000000
     22798      7600  TIP3      OH2            28.9679294280       41.6124275841       -6.9541263352  W2        7600            0.0000000000
     22799      7600  TIP3      H1             29.1105194280       40.6661275841       -6.9339663352  W2        7600            0.0000000000
     22800      7600  TIP3      H2             28.8618294280       41.8194075841       -7.8826363352  W2        7600            0.0000000000
     22801      7601  TIP3      OH2            22.1227594280       39.7140675841       -9.6816463352  W2        7601            0.0000000000
     22802      7601  TIP3      H1             22.1658694280       40.5739175841      -10.1000163352  W2        7601            0.0000000000
     22803      7601  TIP3      H2             21.6651694280       39.1615375841      -10.3153263352  W2        7601            0.0000000000
     22804      7602  TIP3      OH2            29.8450294280       39.8446275841      -11.2808163352  W2        7602            0.0000000000
     22805      7602  TIP3      H1             30.4914594280       39.5159475841      -10.6560563352  W2        7602            0.0000000000
     22806      7602  TIP3      H2             30.3549694280       40.3625275841      -11.9036763352  W2        7602            0.0000000000
     22807      7603  TIP3      OH2            18.7429094280       42.1106475841       -8.9195063352  W2        7603            0.0000000000
     22808      7603  TIP3      H1             19.3965694280       41.5608175841       -8.4874963352  W2        7603            0.0000000000
     22809      7603  TIP3      H2             18.7668394280       41.8365475841       -9.8363063352  W2        7603            0.0000000000
     22810      7604  TIP3      OH2            23.8993594280       43.6607775841       -9.7043563352  W2        7604            0.0000000000
     22811      7604  TIP3      H1             24.5154594280       43.1343175841       -9.1949563352  W2        7604            0.0000000000
     22812      7604  TIP3      H2             23.3132394280       43.0206475841      -10.1079963352  W2        7604            0.0000000000
     22813      7605  TIP3      OH2            34.8816694280       40.2976375841       -4.1850063352  W2        7605            0.0000000000
     22814      7605  TIP3      H1             34.1931294280       40.9557075841       -4.2803463352  W2        7605            0.0000000000
     22815      7605  TIP3      H2             34.8971294280       40.1004275841       -3.2484663352  W2        7605            0.0000000000
     22816      7606  TIP3      OH2            20.9329494280       38.6319075841       -5.6075663352  W2        7606            0.0000000000
     22817      7606  TIP3      H1             20.7141194280       39.1619675841       -6.3739663352  W2        7606            0.0000000000
     22818      7606  TIP3      H2             20.2650394280       38.8584575841       -4.9604263352  W2        7606            0.0000000000
     22819      7607  TIP3      OH2            28.3019294280       48.1320175841      -12.0636563352  W2        7607            0.0000000000
     22820      7607  TIP3      H1             28.0064394280       47.8092475841      -12.9149663352  W2        7607            0.0000000000
     22821      7607  TIP3      H2             27.9777094280       49.0316875841      -12.0223963352  W2        7607            0.0000000000
     22822      7608  TIP3      OH2            23.5020894280       46.3074775841       -5.3201963352  W2        7608            0.0000000000
     22823      7608  TIP3      H1             22.7619994280       46.9056275841       -5.2166763352  W2        7608            0.0000000000
     22824      7608  TIP3      H2             24.2160394280       46.8614375841       -5.6358363352  W2        7608            0.0000000000
     22825      7609  TIP3      OH2            31.6088694280       39.1355575841       -9.3002263352  W2        7609            0.0000000000
     22826      7609  TIP3      H1             31.3936694280       38.3698975841       -8.7676263352  W2        7609            0.0000000000
     22827      7609  TIP3      H2             32.2646094280       39.6080175841       -8.7873763352  W2        7609            0.0000000000
     22828      7610  TIP3      OH2            20.5266794280       40.5240875841       -7.6553463352  W2        7610            0.0000000000
     22829      7610  TIP3      H1             21.1403094280       41.1568475841       -7.2821063352  W2        7610            0.0000000000
     22830      7610  TIP3      H2             21.0387494280       40.0515875841       -8.3116563352  W2        7610            0.0000000000
     22831      7611  TIP3      OH2            21.9095194280       48.2717775841       -4.5330463352  W2        7611            0.0000000000
     22832      7611  TIP3      H1             21.9042794280       49.1511275841       -4.9111163352  W2        7611            0.0000000000
     22833      7611  TIP3      H2             21.0559294280       48.1881875841       -4.1080563352  W2        7611            0.0000000000
     22834      7612  TIP3      OH2            18.0306094280       47.9425675841      -13.7511163352  W2        7612            0.0000000000
     22835      7612  TIP3      H1             17.7586994280       48.1716675841      -14.6398263352  W2        7612            0.0000000000
     22836      7612  TIP3      H2             18.0761794280       48.7804475841      -13.2905863352  W2        7612            0.0000000000
     22837      7613  TIP3      OH2            31.6555794280       49.5641575841       -7.0382663352  W2        7613            0.0000000000
     22838      7613  TIP3      H1             30.7139494280       49.6225475841       -6.8765763352  W2        7613            0.0000000000
     22839      7613  TIP3      H2             31.9321894280       50.4702075841       -7.1752963352  W2        7613            0.0000000000
     22840      7614  TIP3      OH2            31.9562794280       37.8506875841       -5.6208763352  W2        7614            0.0000000000
     22841      7614  TIP3      H1             31.2201994280       38.4613975841       -5.6587463352  W2        7614            0.0000000000
     22842      7614  TIP3      H2             32.6396794280       38.2655875841       -6.1472363352  W2        7614            0.0000000000
     22843      7615  TIP3      OH2            24.9594194280       35.9374175841       -8.1550763352  W2        7615            0.0000000000
     22844      7615  TIP3      H1             24.8418394280       34.9890175841       -8.2092463352  W2        7615            0.0000000000
     22845      7615  TIP3      H2             24.1044294280       36.2700275841       -7.8819663352  W2        7615            0.0000000000
     22846      7616  TIP3      OH2            29.9076994280       51.3455075841      -10.4131063352  W2        7616            0.0000000000
     22847      7616  TIP3      H1             30.3329294280       50.6382975841      -10.8981463352  W2        7616            0.0000000000
     22848      7616  TIP3      H2             30.2246994280       52.1467775841      -10.8298863352  W2        7616            0.0000000000
     22849      7617  TIP3      OH2            31.0673494280       49.2463575841      -11.9044463352  W2        7617            0.0000000000
     22850      7617  TIP3      H1             30.8098294280       48.5563675841      -12.5158563352  W2        7617            0.0000000000
     22851      7617  TIP3      H2             31.1384294280       48.8034775841      -11.0588563352  W2        7617            0.0000000000
     22852      7618  TIP3      OH2            32.7533694280       47.8130275841       -3.4270963352  W2        7618            0.0000000000
     22853      7618  TIP3      H1             32.8929994280       47.2212775841       -4.1663963352  W2        7618            0.0000000000
     22854      7618  TIP3      H2             32.9206494280       48.6856175841       -3.7832163352  W2        7618            0.0000000000
     22855      7619  TIP3      OH2            27.2259094280       44.7749775841      -13.6544963352  W2        7619            0.0000000000
     22856      7619  TIP3      H1             26.5144594280       45.3099475841      -14.0064463352  W2        7619            0.0000000000
     22857      7619  TIP3      H2             27.9168694280       44.8301875841      -14.3146063352  W2        7619            0.0000000000
     22858      7620  TIP3      OH2            27.2798294280       43.2324075841      -16.6159963352  W2        7620            0.0000000000
     22859      7620  TIP3      H1             27.9808194280       43.2550975841      -15.9645963352  W2        7620            0.0000000000
     22860      7620  TIP3      H2             27.5821194280       42.6043775841      -17.2720663352  W2        7620            0.0000000000
     22861      7621  TIP3      OH2            34.5952994280       44.1528275841       -5.3610563352  W2        7621            0.0000000000
     22862      7621  TIP3      H1             33.9427094280       44.8473875841       -5.2719663352  W2        7621            0.0000000000
     22863      7621  TIP3      H2             35.0603294280       44.3629175841       -6.1708963352  W2        7621            0.0000000000
     22864      7622  TIP3      OH2            30.6316794280       44.9843075841      -12.7029063352  W2        7622            0.0000000000
     22865      7622  TIP3      H1             29.8997794280       45.2126775841      -12.1298463352  W2        7622            0.0000000000
     22866      7622  TIP3      H2             31.0788994280       44.2705775841      -12.2481563352  W2        7622            0.0000000000
     22867      7623  TIP3      OH2            30.5290294280       43.1585675841       -3.6352063352  W2        7623            0.0000000000
     22868      7623  TIP3      H1             30.6089394280       43.9220075841       -3.0633563352  W2        7623            0.0000000000
     22869      7623  TIP3      H2             29.9277994280       43.4378075841       -4.3256963352  W2        7623            0.0000000000
     22870      7624  TIP3      OH2            22.2770494280       45.6149275841      -10.8204063352  W2        7624            0.0000000000
     22871      7624  TIP3      H1             21.9465694280       45.2442675841      -11.6387063352  W2        7624            0.0000000000
     22872      7624  TIP3      H2             22.8654594280       44.9443275841      -10.4735763352  W2        7624            0.0000000000
     22873      7625  TIP3      OH2            23.6437994280       49.0429875841       -8.1391863352  W2        7625            0.0000000000
     22874      7625  TIP3      H1             23.5489294280       48.4642975841       -8.8957263352  W2        7625            0.0000000000
     22875      7625  TIP3      H2             24.3731594280       48.6715575841       -7.6429063352  W2        7625            0.0000000000
     22876      7626  TIP3      OH2            22.6435994280       44.3834875841       -7.1869063352  W2        7626            0.0000000000
     22877      7626  TIP3      H1             23.2088494280       44.5049075841       -7.9497863352  W2        7626            0.0000000000
     22878      7626  TIP3      H2             22.9624894280       45.0209875841       -6.5480563352  W2        7626            0.0000000000
     22879      7627  TIP3      OH2            28.9528194280       49.8866775841       -6.4528563352  W2        7627            0.0000000000
     22880      7627  TIP3      H1             28.7124794280       50.5489875841       -5.8049363352  W2        7627            0.0000000000
     22881      7627  TIP3      H2             28.7546394280       49.0521975841       -6.0278963352  W2        7627            0.0000000000
     22882      7628  TIP3      OH2            23.5236694280       48.7827575841       -2.4697163352  W2        7628            0.0000000000
     22883      7628  TIP3      H1             23.2124194280       49.5650775841       -2.0143963352  W2        7628            0.0000000000
     22884      7628  TIP3      H2             22.8736894280       48.6296675841       -3.1555163352  W2        7628            0.0000000000
     22885      7629  TIP3      OH2            29.5026294280       44.1465975841      -15.0177863352  W2        7629            0.0000000000
     22886      7629  TIP3      H1             30.0821794280       44.2966275841      -14.2708963352  W2        7629            0.0000000000
     22887      7629  TIP3      H2             29.9166294280       44.6173375841      -15.7411463352  W2        7629            0.0000000000
     22888      7630  TIP3      OH2            20.4436594280       44.9808675841       -3.2411463352  W2        7630            0.0000000000
     22889      7630  TIP3      H1             20.5139794280       45.6315475841       -2.5426463352  W2        7630            0.0000000000
     22890      7630  TIP3      H2             19.5528794280       45.0836175841       -3.5760563352  W2        7630            0.0000000000
     22891      7631  TIP3      OH2            27.2291194280       50.8834475841      -11.5824763352  W2        7631            0.0000000000
     22892      7631  TIP3      H1             27.7028794280       51.1790775841      -10.8050563352  W2        7631            0.0000000000
     22893      7631  TIP3      H2             26.6660494280       51.6216075841      -11.8155163352  W2        7631            0.0000000000
     22894      7632  TIP3      OH2            21.7632594280       50.8542575841       -1.7063363352  W2        7632            0.0000000000
     22895      7632  TIP3      H1             21.7707894280       50.7182275841       -2.6537863352  W2        7632            0.0000000000
     22896      7632  TIP3      H2             20.8472994280       50.7370675841       -1.4543363352  W2        7632            0.0000000000
     22897      7633  TIP3      OH2            33.2014694280       35.8966375841      -15.2048163352  W2        7633            0.0000000000
     22898      7633  TIP3      H1             32.3015394280       36.0355375841      -14.9097563352  W2        7633            0.0000000000
     22899      7633  TIP3      H2             33.4533094280       36.7280975841      -15.6066463352  W2        7633            0.0000000000
     22900      7634  TIP3      OH2            21.2673194280       44.6843575841      -13.2311263352  W2        7634            0.0000000000
     22901      7634  TIP3      H1             20.9754494280       45.4525275841      -13.7219963352  W2        7634            0.0000000000
     22902      7634  TIP3      H2             20.5928394280       44.0249775841      -13.3939863352  W2        7634            0.0000000000
     22903      7635  TIP3      OH2            34.3906094280       50.2628775841      -16.8284263352  W2        7635            0.0000000000
     22904      7635  TIP3      H1             34.4639594280       51.2018975841      -16.6578963352  W2        7635            0.0000000000
     22905      7635  TIP3      H2             35.2961194280       49.9577375841      -16.8846963352  W2        7635            0.0000000000
     22906      7636  TIP3      OH2            17.3603294280       47.0472775841       -4.4161463352  W2        7636            0.0000000000
     22907      7636  TIP3      H1             16.8591694280       47.0192175841       -5.2311763352  W2        7636            0.0000000000
     22908      7636  TIP3      H2             17.3656994280       46.1415975841       -4.1064163352  W2        7636            0.0000000000
     22909      7637  TIP3      OH2            17.1105994280       49.8276575841       -7.5321263352  W2        7637            0.0000000000
     22910      7637  TIP3      H1             18.0566594280       49.6833575841       -7.5511763352  W2        7637            0.0000000000
     22911      7637  TIP3      H2             16.9982294280       50.6119375841       -6.9950063352  W2        7637            0.0000000000
     22912      7638  TIP3      OH2            35.3084494280       50.4936275841       -1.8497563352  W2        7638            0.0000000000
     22913      7638  TIP3      H1             35.2591294280       49.5384375841       -1.8869963352  W2        7638            0.0000000000
     22914      7638  TIP3      H2             34.4816794280       50.7611575841       -1.4483763352  W2        7638            0.0000000000
     22915      7639  TIP3      OH2            26.2868494280       50.0675475841       -2.9736163352  W2        7639            0.0000000000
     22916      7639  TIP3      H1             26.3743094280       50.8940075841       -2.4987063352  W2        7639            0.0000000000
     22917      7639  TIP3      H2             25.4233594280       49.7379275841       -2.7246863352  W2        7639            0.0000000000
     22918      7640  TIP3      OH2            26.7014294280       53.8399175841      -13.1675563352  W2        7640            0.0000000000
     22919      7640  TIP3      H1             26.6260294280       53.7186375841      -14.1140363352  W2        7640            0.0000000000
     22920      7640  TIP3      H2             26.7342994280       54.7891875841      -13.0490963352  W2        7640            0.0000000000
     22921      7641  TIP3      OH2            20.3548094280       52.6286175841      -11.3866563352  W2        7641            0.0000000000
     22922      7641  TIP3      H1             20.5068494280       52.2806575841      -10.5080063352  W2        7641            0.0000000000
     22923      7641  TIP3      H2             19.5038494280       52.2723475841      -11.6419363352  W2        7641            0.0000000000
     22924      7642  TIP3      OH2            29.8030294280       52.9939375841      -16.1653163352  W2        7642            0.0000000000
     22925      7642  TIP3      H1             30.1778694280       52.2495475841      -16.6360563352  W2        7642            0.0000000000
     22926      7642  TIP3      H2             29.8073994280       52.7239975841      -15.2469863352  W2        7642            0.0000000000
     22927      7643  TIP3      OH2            29.4718394280       52.9196475841      -13.4160963352  W2        7643            0.0000000000
     22928      7643  TIP3      H1             28.5368194280       53.0198375841      -13.2373963352  W2        7643            0.0000000000
     22929      7643  TIP3      H2             29.7520294280       52.2102475841      -12.8377763352  W2        7643            0.0000000000
     22930      7644  TIP3      OH2            32.4604294280       41.9868775841       -1.3695363352  W2        7644            0.0000000000
     22931      7644  TIP3      H1             32.0531094280       42.4674375841       -2.0902063352  W2        7644            0.0000000000
     22932      7644  TIP3      H2             32.5009994280       41.0814775841       -1.6774563352  W2        7644            0.0000000000
     22933      7645  TIP3      OH2            19.6093794280       48.3708175841       -3.3728663352  W2        7645            0.0000000000
     22934      7645  TIP3      H1             19.8255094280       48.0093775841       -2.5132863352  W2        7645            0.0000000000
     22935      7645  TIP3      H2             18.7538494280       47.9961975841       -3.5825163352  W2        7645            0.0000000000
     22936      7646  TIP3      OH2            22.2281794280       36.8408675841       -7.3774463352  W2        7646            0.0000000000
     22937      7646  TIP3      H1             21.3665494280       36.7536875841       -7.7851563352  W2        7646            0.0000000000
     22938      7646  TIP3      H2             22.2057494280       37.6968775841       -6.9496863352  W2        7646            0.0000000000
     22939      7647  TIP3      OH2            26.8909594280       36.5629075841       -4.0027463352  W2        7647            0.0000000000
     22940      7647  TIP3      H1             27.3112694280       36.1476175841       -3.2496863352  W2        7647            0.0000000000
     22941      7647  TIP3      H2             25.9579194280       36.3842375841       -3.8855463352  W2        7647            0.0000000000
     22942      7648  TIP3      OH2            30.2174494280       40.3184275841       -3.1492963352  W2        7648            0.0000000000
     22943      7648  TIP3      H1             29.7033994280       40.1926475841       -2.3516963352  W2        7648            0.0000000000
     22944      7648  TIP3      H2             30.0619194280       41.2307375841       -3.3936763352  W2        7648            0.0000000000
     22945      7649  TIP3      OH2            30.9799394280       45.1794275841      -17.3879963352  W2        7649            0.0000000000
     22946      7649  TIP3      H1             31.0220194280       44.9568175841      -18.3179963352  W2        7649            0.0000000000
     22947      7649  TIP3      H2             31.8291494280       45.5781375841      -17.1980063352  W2        7649            0.0000000000
     22948      7650  TIP3      OH2            26.5526894280       39.0552475841      -16.7176663352  W2        7650            0.0000000000
     22949      7650  TIP3      H1             26.2991694280       39.0744075841      -15.7948563352  W2        7650            0.0000000000
     22950      7650  TIP3      H2             26.2958994280       38.1837875841      -17.0190463352  W2        7650            0.0000000000
     22951      7651  TIP3      OH2            22.3191894280       41.8063175841       -6.2824263352  W2        7651            0.0000000000
     22952      7651  TIP3      H1             21.6773994280       41.7660475841       -5.5734163352  W2        7651            0.0000000000
     22953      7651  TIP3      H2             22.3563894280       42.7327875841       -6.5201263352  W2        7651            0.0000000000
     22954      7652  TIP3      OH2            22.3160994280       42.0273275841      -11.3704263352  W2        7652            0.0000000000
     22955      7652  TIP3      H1             21.4233894280       41.6869375841      -11.4290463352  W2        7652            0.0000000000
     22956      7652  TIP3      H2             22.7667594280       41.6504175841      -12.1261063352  W2        7652            0.0000000000
     22957      7653  TIP3      OH2            27.8516494280       42.4433575841      -12.5533463352  W2        7653            0.0000000000
     22958      7653  TIP3      H1             27.4426794280       43.2582175841      -12.8448663352  W2        7653            0.0000000000
     22959      7653  TIP3      H2             28.5722694280       42.3033675841      -13.1676363352  W2        7653            0.0000000000
     22960      7654  TIP3      OH2            26.9538094280       42.6189975841       -1.0652763352  W2        7654            0.0000000000
     22961      7654  TIP3      H1             26.3911894280       41.9141575841       -0.7444963352  W2        7654            0.0000000000
     22962      7654  TIP3      H2             27.7801494280       42.4981875841       -0.5975163352  W2        7654            0.0000000000
     22963      7655  TIP3      OH2            28.8564194280       41.8893975841       -9.7393763352  W2        7655            0.0000000000
     22964      7655  TIP3      H1             28.6608694280       42.4950775841      -10.4543163352  W2        7655            0.0000000000
     22965      7655  TIP3      H2             29.0376794280       41.0559175841      -10.1737463352  W2        7655            0.0000000000
     22966      7656  TIP3      OH2            20.0692394280       42.1266675841       -4.4152263352  W2        7656            0.0000000000
     22967      7656  TIP3      H1             20.0311794280       42.5268275841       -3.5465163352  W2        7656            0.0000000000
     22968      7656  TIP3      H2             19.5783494280       41.3099075841       -4.3249363352  W2        7656            0.0000000000
     22969      7657  TIP3      OH2            23.4349794280       39.5008975841      -17.6166263352  W2        7657            0.0000000000
     22970      7657  TIP3      H1             23.0040494280       39.0559075841      -16.8868863352  W2        7657            0.0000000000
     22971      7657  TIP3      H2             22.7168494280       39.8725275841      -18.1288763352  W2        7657            0.0000000000
     22972      7658  TIP3      OH2            16.6773194280       39.2428475841      -10.5647563352  W2        7658            0.0000000000
     22973      7658  TIP3      H1             17.3080894280       39.2140575841       -9.8453663352  W2        7658            0.0000000000
     22974      7658  TIP3      H2             17.1267494280       38.8177175841      -11.2951663352  W2        7658            0.0000000000
     22975      7659  TIP3      OH2            17.9515294280       39.9890475841      -15.1407163352  W2        7659            0.0000000000
     22976      7659  TIP3      H1             18.4256994280       40.5800375841      -15.7256263352  W2        7659            0.0000000000
     22977      7659  TIP3      H2             17.2341694280       40.5193375841      -14.7937063352  W2        7659            0.0000000000
     22978      7660  TIP3      OH2            28.1203394280       43.5275275841       -5.0681363352  W2        7660            0.0000000000
     22979      7660  TIP3      H1             28.4438194280       42.8964975841       -5.7110863352  W2        7660            0.0000000000
     22980      7660  TIP3      H2             27.6802694280       42.9927475841       -4.4073963352  W2        7660            0.0000000000
     22981      7661  TIP3      OH2            24.8976294280       39.4550775841      -10.2840163352  W2        7661            0.0000000000
     22982      7661  TIP3      H1             23.9867394280       39.5117575841       -9.9954163352  W2        7661            0.0000000000
     22983      7661  TIP3      H2             25.4029194280       39.3946275841       -9.4732963352  W2        7661            0.0000000000
     22984      7662  TIP3      OH2            19.7259694280       41.0837075841      -11.4572563352  W2        7662            0.0000000000
     22985      7662  TIP3      H1             18.8367694280       41.1832575841      -11.7972963352  W2        7662            0.0000000000
     22986      7662  TIP3      H2             20.0224594280       40.2420075841      -11.8034663352  W2        7662            0.0000000000
     22987      7663  TIP3      OH2            23.3791494280       41.0839675841      -13.8007963352  W2        7663            0.0000000000
     22988      7663  TIP3      H1             24.3106994280       41.2129675841      -13.6224863352  W2        7663            0.0000000000
     22989      7663  TIP3      H2             23.1641794280       41.7533975841      -14.4503263352  W2        7663            0.0000000000
     22990      7664  TIP3      OH2            29.3028194280       38.6897075841       -7.0198363352  W2        7664            0.0000000000
     22991      7664  TIP3      H1             28.6259794280       38.8210175841       -6.3558663352  W2        7664            0.0000000000
     22992      7664  TIP3      H2             28.8173094280       38.5346575841       -7.8300663352  W2        7664            0.0000000000
     22993      7665  TIP3      OH2            22.0531694280       42.2781875841      -16.2341863352  W2        7665            0.0000000000
     22994      7665  TIP3      H1             21.5106794280       41.8985675841      -16.9254263352  W2        7665            0.0000000000
     22995      7665  TIP3      H2             22.8866594280       42.4726575841      -16.6627763352  W2        7665            0.0000000000
     22996      7666  TIP3      OH2            32.5903294280       54.3612475841       -0.7430763352  W2        7666            0.0000000000
     22997      7666  TIP3      H1             32.7901994280       54.7854375841       -1.5775463352  W2        7666            0.0000000000
     22998      7666  TIP3      H2             33.2456994280       54.7050675841       -0.1360363352  W2        7666            0.0000000000
     22999      7667  TIP3      OH2            20.1883094280       46.8353775841       -1.1350263352  W2        7667            0.0000000000
     23000      7667  TIP3      H1             20.9205494280       47.0899675841       -0.5735763352  W2        7667            0.0000000000
     23001      7667  TIP3      H2             19.4081794280       47.0399175841       -0.6194863352  W2        7667            0.0000000000
     23002      7668  TIP3      OH2            26.2175994280       42.2423775841       -8.3970563352  W2        7668            0.0000000000
     23003      7668  TIP3      H1             26.7819394280       41.6960375841       -8.9440963352  W2        7668            0.0000000000
     23004      7668  TIP3      H2             26.0699394280       41.7205675841       -7.6082963352  W2        7668            0.0000000000
     23005      7669  TIP3      OH2            21.2195694280       38.3789875841      -11.9785763352  W2        7669            0.0000000000
     23006      7669  TIP3      H1             20.9025194280       37.4765175841      -12.0140363352  W2        7669            0.0000000000
     23007      7669  TIP3      H2             22.0009794280       38.3807275841      -12.5314163352  W2        7669            0.0000000000
     23008      7670  TIP3      OH2            24.8441894280       40.6309875841       -5.9830163352  W2        7670            0.0000000000
     23009      7670  TIP3      H1             24.0087194280       41.0849375841       -5.8727763352  W2        7670            0.0000000000
     23010      7670  TIP3      H2             25.3682494280       40.9068375841       -5.2310263352  W2        7670            0.0000000000
     23011      7671  TIP3      OH2            25.3884494280       46.8437575841      -14.2983763352  W2        7671            0.0000000000
     23012      7671  TIP3      H1             24.6435494280       46.3362875841      -14.6205863352  W2        7671            0.0000000000
     23013      7671  TIP3      H2             25.2541694280       46.8925575841      -13.3518963352  W2        7671            0.0000000000
     23014      7672  TIP3      OH2            32.5383394280       45.9765775841       -5.5116163352  W2        7672            0.0000000000
     23015      7672  TIP3      H1             33.1802194280       46.4332075841       -6.0553963352  W2        7672            0.0000000000
     23016      7672  TIP3      H2             31.7080294280       46.0898175841       -5.9742063352  W2        7672            0.0000000000
     23017      7673  TIP3      OH2            29.2861294280       39.6577475841      -16.0991163352  W2        7673            0.0000000000
     23018      7673  TIP3      H1             28.3475494280       39.7693075841      -16.2502363352  W2        7673            0.0000000000
     23019      7673  TIP3      H2             29.5833394280       40.5144375841      -15.7925463352  W2        7673            0.0000000000
     23020      7674  TIP3      OH2            26.9076594280       47.0280875841       -3.0614663352  W2        7674            0.0000000000
     23021      7674  TIP3      H1             26.5622694280       46.6463275841       -2.2545063352  W2        7674            0.0000000000
     23022      7674  TIP3      H2             26.7076694280       47.9614475841       -2.9901763352  W2        7674            0.0000000000
     23023      7675  TIP3      OH2            30.0044794280       41.5250175841      -14.4383763352  W2        7675            0.0000000000
     23024      7675  TIP3      H1             30.8963794280       41.3875175841      -14.1192563352  W2        7675            0.0000000000
     23025      7675  TIP3      H2             30.0608394280       42.3156275841      -14.9750263352  W2        7675            0.0000000000
     23026      7676  TIP3      OH2            20.5132794280       46.1387575841       -8.5285863352  W2        7676            0.0000000000
     23027      7676  TIP3      H1             21.2579994280       46.1363275841       -9.1299363352  W2        7676            0.0000000000
     23028      7676  TIP3      H2             20.5909394280       45.3151375841       -8.0470763352  W2        7676            0.0000000000
     23029      7677  TIP3      OH2            27.5138594280       48.3021875841      -15.2729163352  W2        7677            0.0000000000
     23030      7677  TIP3      H1             27.2186994280       49.1289775841      -14.8914363352  W2        7677            0.0000000000
     23031      7677  TIP3      H2             26.8108594280       47.6828775841      -15.0767763352  W2        7677            0.0000000000
     23032      7678  TIP3      OH2            17.5212494280       44.5994475841       -3.2137363352  W2        7678            0.0000000000
     23033      7678  TIP3      H1             17.7441094280       44.1814075841       -2.3819863352  W2        7678            0.0000000000
     23034      7678  TIP3      H2             16.9192594280       43.9869475841       -3.6364563352  W2        7678            0.0000000000
     23035      7679  TIP3      OH2            24.5377394280       44.1164375841       -1.0007663352  W2        7679            0.0000000000
     23036      7679  TIP3      H1             24.2418194280       43.9507375841       -1.8958563352  W2        7679            0.0000000000
     23037      7679  TIP3      H2             25.4692594280       43.8964675841       -1.0113763352  W2        7679            0.0000000000
     23038      7680  TIP3      OH2            29.1580194280       49.4896375841       -3.1109663352  W2        7680            0.0000000000
     23039      7680  TIP3      H1             28.2574494280       49.6728975841       -3.3785763352  W2        7680            0.0000000000
     23040      7680  TIP3      H2             29.1921294280       49.7485675841       -2.1900863352  W2        7680            0.0000000000
     23041      7681  TIP3      OH2            34.8893494280       41.7344275841      -14.7437063352  W2        7681            0.0000000000
     23042      7681  TIP3      H1             34.3349794280       41.3382275841      -15.4159563352  W2        7681            0.0000000000
     23043      7681  TIP3      H2             34.9897094280       42.6449475841      -15.0213763352  W2        7681            0.0000000000
     23044      7682  TIP3      OH2            34.8525494280       47.5345975841       -1.9065563352  W2        7682            0.0000000000
     23045      7682  TIP3      H1             34.0013994280       47.7729775841       -2.2739163352  W2        7682            0.0000000000
     23046      7682  TIP3      H2             35.4428894280       47.5179175841       -2.6598463352  W2        7682            0.0000000000
     23047      7683  TIP3      OH2            33.1845194280       50.5204675841      -14.2784963352  W2        7683            0.0000000000
     23048      7683  TIP3      H1             32.8116294280       49.6948475841      -13.9694363352  W2        7683            0.0000000000
     23049      7683  TIP3      H2             33.4618694280       50.3374075841      -15.1761563352  W2        7683            0.0000000000
     23050      7684  TIP3      OH2            30.3449094280       45.3284175841       -7.2573063352  W2        7684            0.0000000000
     23051      7684  TIP3      H1             29.4165994280       45.0966075841       -7.2843763352  W2        7684            0.0000000000
     23052      7684  TIP3      H2             30.7960194280       44.5513975841       -7.5874263352  W2        7684            0.0000000000
     23053      7685  TIP3      OH2            22.8882194280       49.6565775841      -11.1244363352  W2        7685            0.0000000000
     23054      7685  TIP3      H1             23.4154394280       50.4300175841      -11.3245563352  W2        7685            0.0000000000
     23055      7685  TIP3      H2             22.0080694280       49.8814975841      -11.4260363352  W2        7685            0.0000000000
     23056      7686  TIP3      OH2            18.6429894280       44.5189875841      -16.5371963352  W2        7686            0.0000000000
     23057      7686  TIP3      H1             19.2589794280       45.1457075841      -16.1577163352  W2        7686            0.0000000000
     23058      7686  TIP3      H2             17.7812494280       44.8349675841      -16.2655463352  W2        7686            0.0000000000
     23059      7687  TIP3      OH2            24.3154494280       47.3195675841      -11.5480063352  W2        7687            0.0000000000
     23060      7687  TIP3      H1             24.0744494280       48.2450075841      -11.5064763352  W2        7687            0.0000000000
     23061      7687  TIP3      H2             23.5748094280       46.8606975841      -11.1516163352  W2        7687            0.0000000000
     23062      7688  TIP3      OH2            24.8301094280       51.4689275841       -5.2328963352  W2        7688            0.0000000000
     23063      7688  TIP3      H1             25.1925794280       52.3234875841       -5.4664563352  W2        7688            0.0000000000
     23064      7688  TIP3      H2             25.3616294280       51.1770875841       -4.4922663352  W2        7688            0.0000000000
     23065      7689  TIP3      OH2            22.9985294280       52.3413275841      -12.0027863352  W2        7689            0.0000000000
     23066      7689  TIP3      H1             22.0485794280       52.4470675841      -11.9514563352  W2        7689            0.0000000000
     23067      7689  TIP3      H2             23.3503394280       53.1620675841      -11.6580363352  W2        7689            0.0000000000
     23068      7690  TIP3      OH2            28.3741894280       47.5679975841       -5.5323363352  W2        7690            0.0000000000
     23069      7690  TIP3      H1             27.9483194280       47.3401675841       -4.7059363352  W2        7690            0.0000000000
     23070      7690  TIP3      H2             28.9547694280       46.8291775841       -5.7148063352  W2        7690            0.0000000000
     23071      7691  TIP3      OH2            30.5770794280       48.4970475841      -16.4584363352  W2        7691            0.0000000000
     23072      7691  TIP3      H1             30.9303894280       48.1170275841      -15.6540863352  W2        7691            0.0000000000
     23073      7691  TIP3      H2             29.6284294280       48.4035275841      -16.3715063352  W2        7691            0.0000000000
     23074      7692  TIP3      OH2            31.0326094280       52.1199475841       -3.0628563352  W2        7692            0.0000000000
     23075      7692  TIP3      H1             30.4309294280       51.5642375841       -3.5582263352  W2        7692            0.0000000000
     23076      7692  TIP3      H2             31.3139794280       52.7869275841       -3.6891163352  W2        7692            0.0000000000
     23077      7693  TIP3      OH2            35.0805194280       52.9762975841      -16.2574163352  W2        7693            0.0000000000
     23078      7693  TIP3      H1             35.8243094280       53.5623475841      -16.3972563352  W2        7693            0.0000000000
     23079      7693  TIP3      H2             34.3863294280       53.5448775841      -15.9241763352  W2        7693            0.0000000000
     23080      7694  TIP3      OH2            19.1551994280       39.3527175841       -3.6555963352  W2        7694            0.0000000000
     23081      7694  TIP3      H1             18.2624294280       39.6912575841       -3.7231963352  W2        7694            0.0000000000
     23082      7694  TIP3      H2             19.0564794280       38.4973275841       -3.2375163352  W2        7694            0.0000000000
     23083      7695  TIP3      OH2            31.4430094280       47.1692475841      -14.2316463352  W2        7695            0.0000000000
     23084      7695  TIP3      H1             31.1657694280       46.4411775841      -13.6755363352  W2        7695            0.0000000000
     23085      7695  TIP3      H2             32.3703094280       47.2884475841      -14.0263863352  W2        7695            0.0000000000
     23086      7696  TIP3      OH2            18.8063994280       51.1571575841       -5.2206563352  W2        7696            0.0000000000
     23087      7696  TIP3      H1             19.0234294280       50.2253975841       -5.2516863352  W2        7696            0.0000000000
     23088      7696  TIP3      H2             19.0527494280       51.4316575841       -4.3373763352  W2        7696            0.0000000000
     23089      7697  TIP3      OH2            24.6678594280       49.6086575841      -18.0114363352  W2        7697            0.0000000000
     23090      7697  TIP3      H1             24.9068394280       48.8604675841      -18.5585463352  W2        7697            0.0000000000
     23091      7697  TIP3      H2             24.3989894280       49.2208275841      -17.1786563352  W2        7697            0.0000000000
     23092      7698  TIP3      OH2            23.6049194280       49.1790375841      -15.5551763352  W2        7698            0.0000000000
     23093      7698  TIP3      H1             23.7517194280       48.6590175841      -14.7650863352  W2        7698            0.0000000000
     23094      7698  TIP3      H2             23.6020894280       50.0857975841      -15.2485863352  W2        7698            0.0000000000
     23095      7699  TIP3      OH2            20.0580294280       46.4313675841      -15.0446363352  W2        7699            0.0000000000
     23096      7699  TIP3      H1             19.3719594280       46.7836175841      -14.4776663352  W2        7699            0.0000000000
     23097      7699  TIP3      H2             20.5808194280       47.1943275841      -15.2912063352  W2        7699            0.0000000000
     23098      7700  TIP3      OH2            27.8895394280       39.0937475841       -4.7657363352  W2        7700            0.0000000000
     23099      7700  TIP3      H1             28.5883294280       39.1676175841       -4.1157663352  W2        7700            0.0000000000
     23100      7700  TIP3      H2             27.5086794280       38.2292475841       -4.6114463352  W2        7700            0.0000000000
     23101      7701  TIP3      OH2            28.6740294280       38.7459175841      -13.6685063352  W2        7701            0.0000000000
     23102      7701  TIP3      H1             28.8938594280       39.2174575841      -14.4719663352  W2        7701            0.0000000000
     23103      7701  TIP3      H2             29.2324294280       39.1401775841      -12.9984463352  W2        7701            0.0000000000
     23104      7702  TIP3      OH2            26.3426394280       50.8763975841      -14.8057563352  W2        7702            0.0000000000
     23105      7702  TIP3      H1             25.5262494280       51.3733675841      -14.7533263352  W2        7702            0.0000000000
     23106      7702  TIP3      H2             26.8722694280       51.3517475841      -15.4458763352  W2        7702            0.0000000000
     23107      7703  TIP3      OH2            25.8740194280       40.4737975841      -12.8336663352  W2        7703            0.0000000000
     23108      7703  TIP3      H1             26.6862794280       40.9781175841      -12.7874963352  W2        7703            0.0000000000
     23109      7703  TIP3      H2             25.6293194280       40.3287675841      -11.9197063352  W2        7703            0.0000000000
     23110      7704  TIP3      OH2            26.4096594280       41.4600675841       -3.6490063352  W2        7704            0.0000000000
     23111      7704  TIP3      H1             26.5286894280       42.0336075841       -2.8919663352  W2        7704            0.0000000000
     23112      7704  TIP3      H2             27.0651194280       40.7720075841       -3.5342263352  W2        7704            0.0000000000
     23113      7705  TIP3      OH2            26.7576894280       37.5550975841      -11.8955563352  W2        7705            0.0000000000
     23114      7705  TIP3      H1             26.4110394280       38.1721575841      -11.2511263352  W2        7705            0.0000000000
     23115      7705  TIP3      H2             27.4163794280       38.0556675841      -12.3770063352  W2        7705            0.0000000000
     23116      7706  TIP3      OH2            23.6809494280       51.9201175841      -14.8240663352  W2        7706            0.0000000000
     23117      7706  TIP3      H1             23.8418194280       52.7198675841      -15.3248063352  W2        7706            0.0000000000
     23118      7706  TIP3      H2             23.4837294280       52.2267175841      -13.9390063352  W2        7706            0.0000000000
     23119      7707  TIP3      OH2            22.4153894280       38.6180375841      -15.2083063352  W2        7707            0.0000000000
     23120      7707  TIP3      H1             22.3318694280       39.5063475841      -14.8616663352  W2        7707            0.0000000000
     23121      7707  TIP3      H2             23.3054194280       38.3527075841      -14.9766263352  W2        7707            0.0000000000
     23122      7708  TIP3      OH2            32.6142394280       39.3670975841       -2.8140363352  W2        7708            0.0000000000
     23123      7708  TIP3      H1             31.6978194280       39.6292675841       -2.9016663352  W2        7708            0.0000000000
     23124      7708  TIP3      H2             32.9497394280       39.3639975841       -3.7105063352  W2        7708            0.0000000000
     23125      7709  TIP3      OH2            31.2163394280       43.1171975841       -8.7183063352  W2        7709            0.0000000000
     23126      7709  TIP3      H1             30.4187794280       42.7022175841       -9.0468063352  W2        7709            0.0000000000
     23127      7709  TIP3      H2             31.6614494280       42.4265675841       -8.2272563352  W2        7709            0.0000000000
     23128      7710  TIP3      OH2            20.6739194280       49.0452575841      -16.1478563352  W2        7710            0.0000000000
     23129      7710  TIP3      H1             21.2660694280       49.7447375841      -15.8716163352  W2        7710            0.0000000000
     23130      7710  TIP3      H2             21.1332194280       48.6122075841      -16.8673963352  W2        7710            0.0000000000
     23131      7711  TIP3      OH2            18.9898394280       41.7095575841      -17.0319163352  W2        7711            0.0000000000
     23132      7711  TIP3      H1             18.9450994280       42.6488675841      -16.8532163352  W2        7711            0.0000000000
     23133      7711  TIP3      H2             18.1021594280       41.4740475841      -17.3017063352  W2        7711            0.0000000000
     23134      7712  TIP3      OH2            32.3027994280       52.3734475841       -7.0959563352  W2        7712            0.0000000000
     23135      7712  TIP3      H1             32.1472294280       53.0518875841       -7.7530263352  W2        7712            0.0000000000
     23136      7712  TIP3      H2             33.2354394280       52.4453775841       -6.8928963352  W2        7712            0.0000000000
     23137      7713  TIP3      OH2            19.7980394280       36.4912175841       -8.3588163352  W2        7713            0.0000000000
     23138      7713  TIP3      H1             19.5690194280       36.5504675841       -9.2863163352  W2        7713            0.0000000000
     23139      7713  TIP3      H2             19.3553794280       35.6997675841       -8.0524063352  W2        7713            0.0000000000
     23140      7714  TIP3      OH2            18.7283694280       50.4319275841      -12.1982363352  W2        7714            0.0000000000
     23141      7714  TIP3      H1             17.8962294280       50.9041975841      -12.1710963352  W2        7714            0.0000000000
     23142      7714  TIP3      H2             19.2741994280       50.9416875841      -12.7969263352  W2        7714            0.0000000000
     23143      7715  TIP3      OH2            18.0167394280       53.0442975841       -0.8684363352  W2        7715            0.0000000000
     23144      7715  TIP3      H1             18.5569594280       52.8276975841       -0.1085163352  W2        7715            0.0000000000
     23145      7715  TIP3      H2             17.5355394280       52.2388975841       -1.0581863352  W2        7715            0.0000000000
     23146      7716  TIP3      OH2            22.6140794280       51.9637375841        0.7519836648  W2        7716            0.0000000000
     23147      7716  TIP3      H1             23.3817994280       51.5048175841        1.0929036648  W2        7716            0.0000000000
     23148      7716  TIP3      H2             22.5926994280       51.7377175841       -0.1778963352  W2        7716            0.0000000000
     23149      7717  TIP3      OH2            26.7060394280       51.4717975841      -17.8728363352  W2        7717            0.0000000000
     23150      7717  TIP3      H1             26.0621394280       50.8406575841      -17.5514663352  W2        7717            0.0000000000
     23151      7717  TIP3      H2             27.4678694280       50.9405975841      -18.1044863352  W2        7717            0.0000000000
     23152      7718  TIP3      OH2            29.1909494280       50.3438475841       -0.5188663352  W2        7718            0.0000000000
     23153      7718  TIP3      H1             28.8398994280       49.4871475841       -0.2758263352  W2        7718            0.0000000000
     23154      7718  TIP3      H2             29.9172694280       50.4865175841        0.0880336648  W2        7718            0.0000000000
     23155      7719  TIP3      OH2            31.3103294280       51.2887875841      -17.6390363352  W2        7719            0.0000000000
     23156      7719  TIP3      H1             31.5933694280       50.4943075841      -17.1863463352  W2        7719            0.0000000000
     23157      7719  TIP3      H2             32.0501194280       51.5218875841      -18.1999263352  W2        7719            0.0000000000
     23158      7720  TIP3      OH2            17.9236894280       46.8547075841        0.0859936648  W2        7720            0.0000000000
     23159      7720  TIP3      H1             18.0677394280       45.9527775841       -0.2003363352  W2        7720            0.0000000000
     23160      7720  TIP3      H2             17.1514294280       47.1409175841       -0.4017763352  W2        7720            0.0000000000
     23161      7721  TIP3      OH2            22.2650594280       47.1982775841      -17.7815463352  W2        7721            0.0000000000
     23162      7721  TIP3      H1             22.3294694280       46.4042375841      -17.2509063352  W2        7721            0.0000000000
     23163      7721  TIP3      H2             22.9179794280       47.0795575841      -18.4713463352  W2        7721            0.0000000000
     23164      7722  TIP3      OH2            24.5792994280       46.8245175841       -0.4813663352  W2        7722            0.0000000000
     23165      7722  TIP3      H1             24.2506794280       47.0953275841       -1.3386263352  W2        7722            0.0000000000
     23166      7722  TIP3      H2             24.7311194280       45.8834975841       -0.5688663352  W2        7722            0.0000000000
     23167      7723  TIP3      OH2            27.6173994280       48.2454475841      -18.0457463352  W2        7723            0.0000000000
     23168      7723  TIP3      H1             27.3488094280       48.4256575841      -17.1448563352  W2        7723            0.0000000000
     23169      7723  TIP3      H2             27.4109594280       47.3200675841      -18.1771663352  W2        7723            0.0000000000
     23170      7724  TIP3      OH2            30.3138194280       46.7402475841       -3.0981363352  W2        7724            0.0000000000
     23171      7724  TIP3      H1             31.0592994280       47.3286175841       -3.2177363352  W2        7724            0.0000000000
     23172      7724  TIP3      H2             29.5564994280       47.3222175841       -3.0348263352  W2        7724            0.0000000000
     23173      7725  TIP3      OH2            18.7563394280       44.0550375841       -0.4940763352  W2        7725            0.0000000000
     23174      7725  TIP3      H1             19.1644594280       43.1976975841       -0.6150163352  W2        7725            0.0000000000
     23175      7725  TIP3      H2             18.4960994280       44.0691675841        0.4269536648  W2        7725            0.0000000000
     23176      7726  TIP3      OH2            23.4144394280       45.1708975841      -15.4757463352  W2        7726            0.0000000000
     23177      7726  TIP3      H1             22.9546394280       44.6867275841      -14.7898963352  W2        7726            0.0000000000
     23178      7726  TIP3      H2             23.6693094280       44.5024375841      -16.1116963352  W2        7726            0.0000000000
     23179      7727  TIP3      OH2            22.7033694280       43.0636075841       -3.1197863352  W2        7727            0.0000000000
     23180      7727  TIP3      H1             22.0849794280       43.7382675841       -2.8393163352  W2        7727            0.0000000000
     23181      7727  TIP3      H2             23.0474894280       43.3849975841       -3.9531663352  W2        7727            0.0000000000
     23182      7728  TIP3      OH2            24.4854794280       43.4140775841      -17.2134263352  W2        7728            0.0000000000
     23183      7728  TIP3      H1             24.3049794280       43.2591975841      -18.1405963352  W2        7728            0.0000000000
     23184      7728  TIP3      H2             25.4355294280       43.5219475841      -17.1686363352  W2        7728            0.0000000000
     23185      7729  TIP3      OH2            27.7231894280       45.5351375841        0.1576936648  W2        7729            0.0000000000
     23186      7729  TIP3      H1             28.6763094280       45.6190475841        0.1302936648  W2        7729            0.0000000000
     23187      7729  TIP3      H2             27.5626494280       44.8233175841        0.7771836648  W2        7729            0.0000000000
     23188      7730  TIP3      OH2            33.8753094280       45.7684975841      -17.7676163352  W2        7730            0.0000000000
     23189      7730  TIP3      H1             33.6017894280       45.3440475841      -18.5807863352  W2        7730            0.0000000000
     23190      7730  TIP3      H2             33.9147194280       46.6999475841      -17.9845763352  W2        7730            0.0000000000
     23191      7731  TIP3      OH2            23.0427394280       40.4186875841       -2.0374763352  W2        7731            0.0000000000
     23192      7731  TIP3      H1             23.1928294280       39.6898175841       -2.6395063352  W2        7731            0.0000000000
     23193      7731  TIP3      H2             23.0449794280       41.1958575841       -2.5962563352  W2        7731            0.0000000000
     23194      7732  TIP3      OH2            23.4553094280       38.7882675841       -4.5447363352  W2        7732            0.0000000000
     23195      7732  TIP3      H1             23.9910594280       39.2399375841       -5.1968063352  W2        7732            0.0000000000
     23196      7732  TIP3      H2             22.6032694280       38.6802475841       -4.9673263352  W2        7732            0.0000000000
     23197      7733  TIP3      OH2            25.0371494280       44.2278875841       -4.3052163352  W2        7733            0.0000000000
     23198      7733  TIP3      H1             25.7876294280       44.0716375841       -4.8784363352  W2        7733            0.0000000000
     23199      7733  TIP3      H2             24.6979794280       45.0795475841       -4.5806663352  W2        7733            0.0000000000
     23200      7734  TIP3      OH2            29.4527694280       42.0430675841        0.7233136648  W2        7734            0.0000000000
     23201      7734  TIP3      H1             29.6448994280       41.1120075841        0.6117636648  W2        7734            0.0000000000
     23202      7734  TIP3      H2             30.3103994280       42.4680175841        0.7128536648  W2        7734            0.0000000000
     23203      7735  TIP3      OH2            30.7694894280       44.8315875841       -1.1994163352  W2        7735            0.0000000000
     23204      7735  TIP3      H1             30.4879894280       45.5410475841       -1.7770363352  W2        7735            0.0000000000
     23205      7735  TIP3      H2             31.7119194280       44.7588875841       -1.3502963352  W2        7735            0.0000000000
     23206      7736  TIP3      OH2            21.5213694280       41.6170375841       -0.1259163352  W2        7736            0.0000000000
     23207      7736  TIP3      H1             20.7542694280       41.0845175841       -0.3361563352  W2        7736            0.0000000000
     23208      7736  TIP3      H2             22.2002694280       41.3070775841       -0.7252863352  W2        7736            0.0000000000
     23209      7737  TIP3      OH2            24.2608594280       36.2448375841       -4.1133763352  W2        7737            0.0000000000
     23210      7737  TIP3      H1             24.1628194280       37.1911575841       -4.2187563352  W2        7737            0.0000000000
     23211      7737  TIP3      H2             23.5184794280       35.8722175841       -4.5890263352  W2        7737            0.0000000000
     23212      7738  TIP3      OH2            25.5249094280       40.5663775841       -0.5495363352  W2        7738            0.0000000000
     23213      7738  TIP3      H1             25.2894494280       40.3470475841        0.3519536648  W2        7738            0.0000000000
     23214      7738  TIP3      H2             24.7415994280       40.3594975841       -1.0592863352  W2        7738            0.0000000000
     23215      7739  TIP3      OH2            28.2405694280       39.6937275841       -1.4741863352  W2        7739            0.0000000000
     23216      7739  TIP3      H1             27.2931094280       39.7256975841       -1.3418563352  W2        7739            0.0000000000
     23217      7739  TIP3      H2             28.5532394280       39.0684375841       -0.8203663352  W2        7739            0.0000000000
     23218      7740  TIP3      OH2            29.8747194280       38.3278375841        0.5310036648  W2        7740            0.0000000000
     23219      7740  TIP3      H1             29.7778994280       37.3755675841        0.5251936648  W2        7740            0.0000000000
     23220      7740  TIP3      H2             29.5530294280       38.5965175841        1.3915536648  W2        7740            0.0000000000
     23221      7741  TIP3      OH2            19.7016494280       39.5374175841       -0.4214463352  W2        7741            0.0000000000
     23222      7741  TIP3      H1             19.9133894280       38.8310275841       -1.0316963352  W2        7741            0.0000000000
     23223      7741  TIP3      H2             19.5903994280       39.1000175841        0.4226736648  W2        7741            0.0000000000
     23224      7742  TIP3      OH2            24.4826694280       35.5385775841       -1.4420963352  W2        7742            0.0000000000
     23225      7742  TIP3      H1             25.1945094280       34.8987975841       -1.4561863352  W2        7742            0.0000000000
     23226      7742  TIP3      H2             24.3817094280       35.8054075841       -2.3557863352  W2        7742            0.0000000000
     23227      7743  TIP3      OH2            24.8364194280       37.2214175841        0.6115336648  W2        7743            0.0000000000
     23228      7743  TIP3      H1             24.7046394280       36.7457975841       -0.2086163352  W2        7743            0.0000000000
     23229      7743  TIP3      H2             24.2371594280       37.9657775841        0.5562436648  W2        7743            0.0000000000
     23230      7744  TIP3      OH2            24.3826494280       54.1044475841      -16.2120663352  W2        7744            0.0000000000
     23231      7744  TIP3      H1             25.3157194280       54.2623175841      -16.0682263352  W2        7744            0.0000000000
     23232      7744  TIP3      H2             24.1185294280       54.7797475841      -16.8369163352  W2        7744            0.0000000000
     23233      7745  TIP3      OH2            17.9511394280       48.7408275841      -16.7292563352  W2        7745            0.0000000000
     23234      7745  TIP3      H1             18.8650594280       48.8197175841      -16.4558663352  W2        7745            0.0000000000
     23235      7745  TIP3      H2             17.9584494280       48.0537875841      -17.3956963352  W2        7745            0.0000000000
     23236      7746  TIP3      OH2            16.6001994280       54.1336775841      -11.6518663352  W2        7746            0.0000000000
     23237      7746  TIP3      H1             15.9529094280       53.6718475841      -12.1847463352  W2        7746            0.0000000000
     23238      7746  TIP3      H2             16.9546594280       53.4620075841      -11.0692463352  W2        7746            0.0000000000
     23239      7747  TIP3      OH2            17.4701194280       52.2143775841       -9.8472463352  W2        7747            0.0000000000
     23240      7747  TIP3      H1             17.1357994280       51.3341075841       -9.6752263352  W2        7747            0.0000000000
     23241      7747  TIP3      H2             17.6923594280       52.5598775841       -8.9826863352  W2        7747            0.0000000000
     23242      7748  TIP3      OH2            35.0185994280       53.0240175841       -6.8667663352  W2        7748            0.0000000000
     23243      7748  TIP3      H1             34.9972694280       53.2088575841       -5.9278263352  W2        7748            0.0000000000
     23244      7748  TIP3      H2             35.7092194280       53.5924175841       -7.2076263352  W2        7748            0.0000000000
     23245      7749  TIP3      OH2            34.5818894280       52.5911275841       -3.9448563352  W2        7749            0.0000000000
     23246      7749  TIP3      H1             34.0947594280       51.8555375841       -4.3161163352  W2        7749            0.0000000000
     23247      7749  TIP3      H2             35.1311594280       52.1975175841       -3.2669163352  W2        7749            0.0000000000
     23248      7750  TIP3      OH2            33.0326194280       48.3809375841        0.6931736648  W2        7750            0.0000000000
     23249      7750  TIP3      H1             32.1667294280       48.2759075841        1.0874036648  W2        7750            0.0000000000
     23250      7750  TIP3      H2             33.4092094280       49.1392675841        1.1396436648  W2        7750            0.0000000000
     23251      7751  TIP3      OH2            34.3335894280       46.6373075841      -13.7925763352  W2        7751            0.0000000000
     23252      7751  TIP3      H1             35.1837294280       47.0583975841      -13.6654163352  W2        7751            0.0000000000
     23253      7751  TIP3      H2             34.3390994280       45.8973175841      -13.1854363352  W2        7751            0.0000000000
     23254      7752  TIP3      OH2            34.7281494280       44.6910475841      -11.9690063352  W2        7752            0.0000000000
     23255      7752  TIP3      H1             34.0016094280       44.2113075841      -11.5712463352  W2        7752            0.0000000000
     23256      7752  TIP3      H2             35.3094794280       44.8965175841      -11.2368463352  W2        7752            0.0000000000
     23257      7753  TIP3      OH2            34.4872694280       47.4757975841       -7.0212463352  W2        7753            0.0000000000
     23258      7753  TIP3      H1             35.3206894280       47.0977975841       -7.3018863352  W2        7753            0.0000000000
     23259      7753  TIP3      H2             34.5992994280       48.4189175841       -7.1403363352  W2        7753            0.0000000000
     23260      7754  TIP3      OH2            32.9734994280       50.3535475841       -4.7144063352  W2        7754            0.0000000000
     23261      7754  TIP3      H1             32.3260294280       50.6786975841       -4.0888863352  W2        7754            0.0000000000
     23262      7754  TIP3      H2             32.4558994280       49.9133175841       -5.3885763352  W2        7754            0.0000000000
     23263      7755  TIP3      OH2            34.9964594280       44.5918975841      -15.5778763352  W2        7755            0.0000000000
     23264      7755  TIP3      H1             34.4745694280       44.9483075841      -16.2967863352  W2        7755            0.0000000000
     23265      7755  TIP3      H2             34.9633794280       45.2666775841      -14.8997863352  W2        7755            0.0000000000
     23266      7756  TIP3      OH2            33.3453594280       41.8314575841      -17.0271663352  W2        7756            0.0000000000
     23267      7756  TIP3      H1             33.4417994280       42.4981575841      -17.7071963352  W2        7756            0.0000000000
     23268      7756  TIP3      H2             33.2053194280       41.0160875841      -17.5086163352  W2        7756            0.0000000000
     23269      7757  TIP3      OH2            32.5148294280       43.2116975841      -11.4061363352  W2        7757            0.0000000000
     23270      7757  TIP3      H1             32.3647094280       42.2665575841      -11.4263563352  W2        7757            0.0000000000
     23271      7757  TIP3      H2             32.1612794280       43.4928375841      -10.5622263352  W2        7757            0.0000000000
     23272      7758  TIP3      OH2            17.5500694280       45.2899175841       -7.3957563352  W2        7758            0.0000000000
     23273      7758  TIP3      H1             17.7343594280       45.2080875841       -8.3314663352  W2        7758            0.0000000000
     23274      7758  TIP3      H2             18.3993594280       45.1656175841       -6.9721163352  W2        7758            0.0000000000
     23275      7759  TIP3      OH2            33.3711194280       45.1820275841       -1.7673063352  W2        7759            0.0000000000
     23276      7759  TIP3      H1             33.9538494280       44.4472575841       -1.5755863352  W2        7759            0.0000000000
     23277      7759  TIP3      H2             33.9350494280       45.9540575841       -1.7207263352  W2        7759            0.0000000000
     23278      7760  TIP3      OH2            34.8678294280       43.0846075841       -1.0827663352  W2        7760            0.0000000000
     23279      7760  TIP3      H1             34.0044994280       42.7058175841       -1.2482963352  W2        7760            0.0000000000
     23280      7760  TIP3      H2             35.4721994280       42.3460875841       -1.1571863352  W2        7760            0.0000000000
     23281      7761  TIP3      OH2            32.5927394280       39.2394375841      -17.9096163352  W2        7761            0.0000000000
     23282      7761  TIP3      H1             33.2033194280       38.8681175841      -17.2727963352  W2        7761            0.0000000000
     23283      7761  TIP3      H2             31.7558894280       38.8181275841      -17.7136163352  W2        7761            0.0000000000
     23284      7762  TIP3      OH2            32.2253094280       40.7942775841      -12.9436263352  W2        7762            0.0000000000
     23285      7762  TIP3      H1             32.5050194280       39.8873175841      -12.8194563352  W2        7762            0.0000000000
     23286      7762  TIP3      H2             32.9844794280       41.2284275841      -13.3327063352  W2        7762            0.0000000000
     23287      7763  TIP3      OH2            32.8371394280       41.3760175841       -7.5077363352  W2        7763            0.0000000000
     23288      7763  TIP3      H1             33.7699394280       41.5880075841       -7.5421363352  W2        7763            0.0000000000
     23289      7763  TIP3      H2             32.6018894280       41.4772275841       -6.5854363352  W2        7763            0.0000000000
     23290      7764  TIP3      OH2            32.8663294280       42.1125475841       -4.7317963352  W2        7764            0.0000000000
     23291      7764  TIP3      H1             32.0234594280       42.3805875841       -4.3658163352  W2        7764            0.0000000000
     23292      7764  TIP3      H2             33.3087594280       42.9347375841       -4.9426863352  W2        7764            0.0000000000
     23293      7765  TIP3      OH2            17.1475494280       40.5604175841       -1.2548763352  W2        7765            0.0000000000
     23294      7765  TIP3      H1             18.0670394280       40.4382475841       -1.0185663352  W2        7765            0.0000000000
     23295      7765  TIP3      H2             16.6979994280       39.8103875841       -0.8655263352  W2        7765            0.0000000000
     23296      7766  TIP3      OH2            35.1494894280       36.0925675841        0.6217036648  W2        7766            0.0000000000
     23297      7766  TIP3      H1             35.4991894280       35.4389175841        0.0161736648  W2        7766            0.0000000000
     23298      7766  TIP3      H2             35.2964394280       36.9299775841        0.1819636648  W2        7766            0.0000000000
     23299      7767  TIP3      OH2            32.8387894280       38.0572075841      -12.8954263352  W2        7767            0.0000000000
     23300      7767  TIP3      H1             33.0212894280       37.6083575841      -12.0699263352  W2        7767            0.0000000000
     23301      7767  TIP3      H2             32.2390794280       37.4726475841      -13.3589663352  W2        7767            0.0000000000
     23302      7768  TIP3      OH2            18.3687994280       38.8725775841       -8.3635863352  W2        7768            0.0000000000
     23303      7768  TIP3      H1             18.8139594280       38.0808275841       -8.0616163352  W2        7768            0.0000000000
     23304      7768  TIP3      H2             18.8350994280       39.5890975841       -7.9330263352  W2        7768            0.0000000000
     23305      7769  TIP3      OH2            16.6728294280       41.8718775841       -7.2945663352  W2        7769            0.0000000000
     23306      7769  TIP3      H1             17.1648094280       41.6509275841       -8.0853663352  W2        7769            0.0000000000
     23307      7769  TIP3      H2             17.0349194280       42.7122175841       -7.0136163352  W2        7769            0.0000000000
     23308      7770  TIP3      OH2            34.6692094280       38.2020275841       -1.0291663352  W2        7770            0.0000000000
     23309      7770  TIP3      H1             33.7517794280       38.4727375841       -1.0648163352  W2        7770            0.0000000000
     23310      7770  TIP3      H2             34.7921494280       37.6668675841       -1.8131963352  W2        7770            0.0000000000
     23311      7771  TIP3      OH2            34.7054094280       38.1250175841      -16.3673963352  W2        7771            0.0000000000
     23312      7771  TIP3      H1             35.1176694280       37.4035875841      -16.8425963352  W2        7771            0.0000000000
     23313      7771  TIP3      H2             35.3870594280       38.7944775841      -16.3089663352  W2        7771            0.0000000000
     23314      7772  TIP3      OH2            16.9864794280       38.1297875841      -13.2403263352  W2        7772            0.0000000000
     23315      7772  TIP3      H1             16.0613194280       38.3384475841      -13.3697763352  W2        7772            0.0000000000
     23316      7772  TIP3      H2             17.4404694280       38.6138675841      -13.9300963352  W2        7772            0.0000000000
     23317      7773  TIP3      OH2            31.7571994280       53.1139575841      -11.2945863352  W2        7773            0.0000000000
     23318      7773  TIP3      H1             32.4094894280       52.7661675841      -11.9026763352  W2        7773            0.0000000000
     23319      7773  TIP3      H2             32.2675794280       53.6022775841      -10.6486163352  W2        7773            0.0000000000
     23320      7774  TIP3      OH2            16.9500194280       36.8676875841       -4.8960763352  W2        7774            0.0000000000
     23321      7774  TIP3      H1             16.2850694280       36.6217175841       -4.2529863352  W2        7774            0.0000000000
     23322      7774  TIP3      H2             16.5071494280       37.4897275841       -5.4732763352  W2        7774            0.0000000000
     23323      7775  TIP3      OH2            19.1419494280       50.0430975841       -0.7514963352  W2        7775            0.0000000000
     23324      7775  TIP3      H1             18.3211994280       50.2177475841       -1.2120263352  W2        7775            0.0000000000
     23325      7775  TIP3      H2             18.8897294280       49.9695675841        0.1689436648  W2        7775            0.0000000000
     23326      7776  TIP3      OH2            22.0962394280       51.0172175841       -4.4930963352  W2        7776            0.0000000000
     23327      7776  TIP3      H1             21.6713494280       51.8270675841       -4.7756363352  W2        7776            0.0000000000
     23328      7776  TIP3      H2             23.0005194280       51.1026275841       -4.7951163352  W2        7776            0.0000000000
     23329      7777  TIP3      OH2            26.4073794280       52.4162175841       -1.5337263352  W2        7777            0.0000000000
     23330      7777  TIP3      H1             26.5921294280       52.0828275841       -0.6556963352  W2        7777            0.0000000000
     23331      7777  TIP3      H2             27.2538294280       52.7260775841       -1.8558063352  W2        7777            0.0000000000
     23332      7778  TIP3      OH2            28.7524194280       53.7021075841       -2.2895863352  W2        7778            0.0000000000
     23333      7778  TIP3      H1             29.4293094280       53.0693375841       -2.5296663352  W2        7778            0.0000000000
     23334      7778  TIP3      H2             29.0742994280       54.1031575841       -1.4822563352  W2        7778            0.0000000000
     23335      7779  TIP3      OH2            33.6697994280       36.2916575841       -3.2100863352  W2        7779            0.0000000000
     23336      7779  TIP3      H1             32.8571494280       36.6166875841       -3.5976163352  W2        7779            0.0000000000
     23337      7779  TIP3      H2             33.9026494280       35.5315075841       -3.7431763352  W2        7779            0.0000000000
     23338      7780  TIP3      OH2            19.4979094280       54.2736075841       -4.4455663352  W2        7780            0.0000000000
     23339      7780  TIP3      H1             18.7775494280       54.7137075841       -4.8967963352  W2        7780            0.0000000000
     23340      7780  TIP3      H2             19.1323094280       54.0230775841       -3.5971663352  W2        7780            0.0000000000
     23341      7781  TIP3      OH2            21.9651694280       53.8739975841       -5.4158463352  W2        7781            0.0000000000
     23342      7781  TIP3      H1             21.1003894280       53.9458475841       -5.0118363352  W2        7781            0.0000000000
     23343      7781  TIP3      H2             21.9100694280       54.4207275841       -6.1995963352  W2        7781            0.0000000000
     23344      7782  TIP3      OH2            26.6757294280       53.7618875841       -6.2402463352  W2        7782            0.0000000000
     23345      7782  TIP3      H1             26.2191294280       54.2908575841       -6.8944063352  W2        7782            0.0000000000
     23346      7782  TIP3      H2             26.8385294280       54.3650275841       -5.5150163352  W2        7782            0.0000000000
     23347      7783  TIP3      OH2            29.0033594280       52.6398475841       -5.2952163352  W2        7783            0.0000000000
     23348      7783  TIP3      H1             28.0987294280       52.8048675841       -5.5610063352  W2        7783            0.0000000000
     23349      7783  TIP3      H2             29.4322194280       53.4930675841       -5.3608763352  W2        7783            0.0000000000
     23350      7784  TIP3      OH2            31.6075494280       54.2097575841       -5.0004363352  W2        7784            0.0000000000
     23351      7784  TIP3      H1             31.4257494280       55.1256475841       -5.2109463352  W2        7784            0.0000000000
     23352      7784  TIP3      H2             31.7843294280       53.7994675841       -5.8469763352  W2        7784            0.0000000000
     23353      7785  TIP3      OH2            18.9127194280       52.8968575841       -7.5353863352  W2        7785            0.0000000000
     23354      7785  TIP3      H1             18.8943194280       52.4713675841       -6.6781563352  W2        7785            0.0000000000
     23355      7785  TIP3      H2             19.7175094280       52.5783575841       -7.9441663352  W2        7785            0.0000000000
     23356      7786  TIP3      OH2            21.0540294280       51.6067275841       -8.8803963352  W2        7786            0.0000000000
     23357      7786  TIP3      H1             20.8350994280       50.6904675841       -8.7107963352  W2        7786            0.0000000000
     23358      7786  TIP3      H2             21.8782494280       51.7467675841       -8.4142563352  W2        7786            0.0000000000
     23359      7787  TIP3      OH2            23.5912794280       52.0766575841       -8.0315963352  W2        7787            0.0000000000
     23360      7787  TIP3      H1             23.8038494280       51.1885575841       -8.3185063352  W2        7787            0.0000000000
     23361      7787  TIP3      H2             23.6557894280       52.0424275841       -7.0771963352  W2        7787            0.0000000000
     23362      7788  TIP3      OH2            27.0996494280       37.7407175841       -8.8872663352  W2        7788            0.0000000000
     23363      7788  TIP3      H1             26.4253294280       37.1112775841       -8.6316863352  W2        7788            0.0000000000
     23364      7788  TIP3      H2             27.6635694280       37.2566075841       -9.4904763352  W2        7788            0.0000000000
     23365      7789  TIP3      OH2            32.2423694280       35.8481175841       -8.7745563352  W2        7789            0.0000000000
     23366      7789  TIP3      H1             32.8461294280       36.3956575841       -9.2764563352  W2        7789            0.0000000000
     23367      7789  TIP3      H2             31.3725694280       36.1671575841       -9.0151463352  W2        7789            0.0000000000
     23368      7790  TIP3      OH2            33.9694094280       36.9869875841      -10.4414663352  W2        7790            0.0000000000
     23369      7790  TIP3      H1             34.5811594280       36.4725575841      -10.9681063352  W2        7790            0.0000000000
     23370      7790  TIP3      H2             34.3517494280       37.8641975841      -10.4180263352  W2        7790            0.0000000000
     23371      7791  TIP3      OH2            19.4263994280       36.3747475841      -11.0652763352  W2        7791            0.0000000000
     23372      7791  TIP3      H1             18.6493794280       36.1402375841      -11.5726863352  W2        7791            0.0000000000
     23373      7791  TIP3      H2             19.9567594280       35.5779575841      -11.0564763352  W2        7791            0.0000000000
     23374      7792  TIP3      OH2            18.2627394280       36.1725575841      -15.2616663352  W2        7792            0.0000000000
     23375      7792  TIP3      H1             18.7018094280       36.7836075841      -15.8533163352  W2        7792            0.0000000000
     23376      7792  TIP3      H2             17.6289794280       36.7109675841      -14.7876663352  W2        7792            0.0000000000
     23377      7793  TIP3      OH2            24.0056594280       36.3014575841      -11.2519663352  W2        7793            0.0000000000
     23378      7793  TIP3      H1             24.8799994280       36.6898875841      -11.2815363352  W2        7793            0.0000000000
     23379      7793  TIP3      H2             23.8697394280       36.0862375841      -10.3292463352  W2        7793            0.0000000000
     23380      7794  TIP3      OH2            29.5624994280       36.3314375841       -9.6027963352  W2        7794            0.0000000000
     23381      7794  TIP3      H1             29.6386594280       36.4265975841      -10.5521963352  W2        7794            0.0000000000
     23382      7794  TIP3      H2             29.2874194280       35.4237275841       -9.4738863352  W2        7794            0.0000000000
     23383      7795  TIP3      OH2            30.9157594280       36.3572175841      -13.9102963352  W2        7795            0.0000000000
     23384      7795  TIP3      H1             30.2128694280       36.9721375841      -14.1201563352  W2        7795            0.0000000000
     23385      7795  TIP3      H2             30.4708994280       35.5198875841      -13.7792063352  W2        7795            0.0000000000
     23386      7796  TIP3      OH2            18.1636894280       52.1207775841      -14.3641563352  W2        7796            0.0000000000
     23387      7796  TIP3      H1             17.4786794280       52.0826675841      -15.0316463352  W2        7796            0.0000000000
     23388      7796  TIP3      H2             18.1674094280       53.0335375841      -14.0759463352  W2        7796            0.0000000000
     23389      7797  TIP3      OH2            20.1236494280       38.0887075841      -16.8192563352  W2        7797            0.0000000000
     23390      7797  TIP3      H1             20.6149894280       37.4589475841      -17.3467063352  W2        7797            0.0000000000
     23391      7797  TIP3      H2             20.7472794280       38.3846475841      -16.1561363352  W2        7797            0.0000000000
     23392      7798  TIP3      OH2            25.1496594280       38.3818575841      -14.3622063352  W2        7798            0.0000000000
     23393      7798  TIP3      H1             25.3277894280       37.7351775841      -13.6793463352  W2        7798            0.0000000000
     23394      7798  TIP3      H2             25.0962794280       39.2156275841      -13.8950963352  W2        7798            0.0000000000
     23395      7799  TIP3      OH2            27.0280394280       53.3302675841      -15.9665363352  W2        7799            0.0000000000
     23396      7799  TIP3      H1             27.8940594280       53.6970075841      -16.1447163352  W2        7799            0.0000000000
     23397      7799  TIP3      H2             26.7813194280       52.8910675841      -16.7804563352  W2        7799            0.0000000000
     23398      7800  TIP3      OH2            33.7369994280       52.8932975841      -13.2874263352  W2        7800            0.0000000000
     23399      7800  TIP3      H1             33.5427094280       52.1455075841      -13.8524663352  W2        7800            0.0000000000
     23400      7800  TIP3      H2             33.6980094280       53.6513075841      -13.8706363352  W2        7800            0.0000000000
     23401      7801  TIP3      OH2            19.3841994280       36.8889375841       -1.5476563352  W2        7801            0.0000000000
     23402      7801  TIP3      H1             19.0180194280       36.1231975841       -1.1051863352  W2        7801            0.0000000000
     23403      7801  TIP3      H2             20.2970494280       36.9179575841       -1.2611463352  W2        7801            0.0000000000
     23404      7802  TIP3      OH2            21.3572794280       36.2393775841       -0.0119463352  W2        7802            0.0000000000
     23405      7802  TIP3      H1             22.2556394280       35.9653975841       -0.1966063352  W2        7802            0.0000000000
     23406      7802  TIP3      H2             20.9705894280       35.4969775841        0.4523136648  W2        7802            0.0000000000
     23407      7803  TIP3      OH2            19.9818094280       53.0408575841      -17.3389463352  W2        7803            0.0000000000
     23408      7803  TIP3      H1             19.7142694280       53.3271475841      -16.4656363352  W2        7803            0.0000000000
     23409      7803  TIP3      H2             20.7530694280       52.4947775841      -17.1866963352  W2        7803            0.0000000000
     23410      7804  TIP3      OH2            29.7785094280       35.5719075841        0.1703336648  W2        7804            0.0000000000
     23411      7804  TIP3      H1             29.8552294280       35.1459775841        1.0241036648  W2        7804            0.0000000000
     23412      7804  TIP3      H2             30.6721694280       35.5853775841       -0.1723163352  W2        7804            0.0000000000
     23413      7805  TIP3      OH2            32.9546194280       51.6445375841       -1.1372463352  W2        7805            0.0000000000
     23414      7805  TIP3      H1             32.1728094280       51.4583375841       -1.6571863352  W2        7805            0.0000000000
     23415      7805  TIP3      H2             32.8826094280       52.5739675841       -0.9199963352  W2        7805            0.0000000000
     23416      7806  TIP3      OH2            47.3606594280       45.5309775841      -11.1065263352  W2        7806            0.0000000000
     23417      7806  TIP3      H1             47.4497694280       46.4747975841      -11.2388163352  W2        7806            0.0000000000
     23418      7806  TIP3      H2             46.7224194280       45.2556175841      -11.7645863352  W2        7806            0.0000000000
     23419      7807  TIP3      OH2            46.2937894280       44.7860475841       -7.6877063352  W2        7807            0.0000000000
     23420      7807  TIP3      H1             46.2555394280       44.1396775841       -6.9827463352  W2        7807            0.0000000000
     23421      7807  TIP3      H2             45.9714394280       44.3194875841       -8.4588363352  W2        7807            0.0000000000
     23422      7808  TIP3      OH2            38.6622894280       44.4002575841       -6.0947163352  W2        7808            0.0000000000
     23423      7808  TIP3      H1             38.7034994280       43.7745875841       -5.3714763352  W2        7808            0.0000000000
     23424      7808  TIP3      H2             39.3650594280       45.0241175841       -5.9126763352  W2        7808            0.0000000000
     23425      7809  TIP3      OH2            49.9998094280       47.7250875841       -9.3861963352  W2        7809            0.0000000000
     23426      7809  TIP3      H1             49.5590794280       47.0046875841       -8.9356363352  W2        7809            0.0000000000
     23427      7809  TIP3      H2             49.9867794280       48.4458075841       -8.7564263352  W2        7809            0.0000000000
     23428      7810  TIP3      OH2            39.5855994280       48.8501475841       -7.5598063352  W2        7810            0.0000000000
     23429      7810  TIP3      H1             39.2161194280       48.0481975841       -7.9293763352  W2        7810            0.0000000000
     23430      7810  TIP3      H2             40.5267094280       48.6816375841       -7.5134663352  W2        7810            0.0000000000
     23431      7811  TIP3      OH2            36.1956494280       42.5104075841      -12.1669263352  W2        7811            0.0000000000
     23432      7811  TIP3      H1             35.7479894280       43.3562775841      -12.1852763352  W2        7811            0.0000000000
     23433      7811  TIP3      H2             35.6347694280       41.9308275841      -12.6824163352  W2        7811            0.0000000000
     23434      7812  TIP3      OH2            36.9062594280       44.6723675841      -10.0411263352  W2        7812            0.0000000000
     23435      7812  TIP3      H1             37.1196094280       43.9025275841       -9.5138263352  W2        7812            0.0000000000
     23436      7812  TIP3      H2             37.6440194280       44.7620375841      -10.6443663352  W2        7812            0.0000000000
     23437      7813  TIP3      OH2            47.1113594280       52.8292575841       -9.1741563352  W2        7813            0.0000000000
     23438      7813  TIP3      H1             47.7309994280       52.1527275841       -9.4472363352  W2        7813            0.0000000000
     23439      7813  TIP3      H2             46.9030994280       52.6113375841       -8.2656663352  W2        7813            0.0000000000
     23440      7814  TIP3      OH2            44.6832294280       47.2181875841       -7.2816063352  W2        7814            0.0000000000
     23441      7814  TIP3      H1             44.9870194280       46.5323275841       -7.8761963352  W2        7814            0.0000000000
     23442      7814  TIP3      H2             45.4046294280       47.3370575841       -6.6638063352  W2        7814            0.0000000000
     23443      7815  TIP3      OH2            53.3462094280       38.8197175841       -6.4209863352  W2        7815            0.0000000000
     23444      7815  TIP3      H1             53.3954294280       39.4298375841       -5.6850763352  W2        7815            0.0000000000
     23445      7815  TIP3      H2             53.7717194280       39.2808075841       -7.1438763352  W2        7815            0.0000000000
     23446      7816  TIP3      OH2            47.8239294280       41.6124275841       -6.9541263352  W2        7816            0.0000000000
     23447      7816  TIP3      H1             47.9665194280       40.6661275841       -6.9339663352  W2        7816            0.0000000000
     23448      7816  TIP3      H2             47.7178294280       41.8194075841       -7.8826363352  W2        7816            0.0000000000
     23449      7817  TIP3      OH2            40.9787594280       39.7140675841       -9.6816463352  W2        7817            0.0000000000
     23450      7817  TIP3      H1             41.0218694280       40.5739175841      -10.1000163352  W2        7817            0.0000000000
     23451      7817  TIP3      H2             40.5211694280       39.1615375841      -10.3153263352  W2        7817            0.0000000000
     23452      7818  TIP3      OH2            48.7010294280       39.8446275841      -11.2808163352  W2        7818            0.0000000000
     23453      7818  TIP3      H1             49.3474594280       39.5159475841      -10.6560563352  W2        7818            0.0000000000
     23454      7818  TIP3      H2             49.2109694280       40.3625275841      -11.9036763352  W2        7818            0.0000000000
     23455      7819  TIP3      OH2            37.5989094280       42.1106475841       -8.9195063352  W2        7819            0.0000000000
     23456      7819  TIP3      H1             38.2525694280       41.5608175841       -8.4874963352  W2        7819            0.0000000000
     23457      7819  TIP3      H2             37.6228394280       41.8365475841       -9.8363063352  W2        7819            0.0000000000
     23458      7820  TIP3      OH2            42.7553594280       43.6607775841       -9.7043563352  W2        7820            0.0000000000
     23459      7820  TIP3      H1             43.3714594280       43.1343175841       -9.1949563352  W2        7820            0.0000000000
     23460      7820  TIP3      H2             42.1692394280       43.0206475841      -10.1079963352  W2        7820            0.0000000000
     23461      7821  TIP3      OH2            53.7376694280       40.2976375841       -4.1850063352  W2        7821            0.0000000000
     23462      7821  TIP3      H1             53.0491294280       40.9557075841       -4.2803463352  W2        7821            0.0000000000
     23463      7821  TIP3      H2             53.7531294280       40.1004275841       -3.2484663352  W2        7821            0.0000000000
     23464      7822  TIP3      OH2            39.7889494280       38.6319075841       -5.6075663352  W2        7822            0.0000000000
     23465      7822  TIP3      H1             39.5701194280       39.1619675841       -6.3739663352  W2        7822            0.0000000000
     23466      7822  TIP3      H2             39.1210394280       38.8584575841       -4.9604263352  W2        7822            0.0000000000
     23467      7823  TIP3      OH2            47.1579294280       48.1320175841      -12.0636563352  W2        7823            0.0000000000
     23468      7823  TIP3      H1             46.8624394280       47.8092475841      -12.9149663352  W2        7823            0.0000000000
     23469      7823  TIP3      H2             46.8337094280       49.0316875841      -12.0223963352  W2        7823            0.0000000000
     23470      7824  TIP3      OH2            42.3580894280       46.3074775841       -5.3201963352  W2        7824            0.0000000000
     23471      7824  TIP3      H1             41.6179994280       46.9056275841       -5.2166763352  W2        7824            0.0000000000
     23472      7824  TIP3      H2             43.0720394280       46.8614375841       -5.6358363352  W2        7824            0.0000000000
     23473      7825  TIP3      OH2            50.4648694280       39.1355575841       -9.3002263352  W2        7825            0.0000000000
     23474      7825  TIP3      H1             50.2496694280       38.3698975841       -8.7676263352  W2        7825            0.0000000000
     23475      7825  TIP3      H2             51.1206094280       39.6080175841       -8.7873763352  W2        7825            0.0000000000
     23476      7826  TIP3      OH2            39.3826794280       40.5240875841       -7.6553463352  W2        7826            0.0000000000
     23477      7826  TIP3      H1             39.9963094280       41.1568475841       -7.2821063352  W2        7826            0.0000000000
     23478      7826  TIP3      H2             39.8947494280       40.0515875841       -8.3116563352  W2        7826            0.0000000000
     23479      7827  TIP3      OH2            40.7655194280       48.2717775841       -4.5330463352  W2        7827            0.0000000000
     23480      7827  TIP3      H1             40.7602794280       49.1511275841       -4.9111163352  W2        7827            0.0000000000
     23481      7827  TIP3      H2             39.9119294280       48.1881875841       -4.1080563352  W2        7827            0.0000000000
     23482      7828  TIP3      OH2            36.8866094280       47.9425675841      -13.7511163352  W2        7828            0.0000000000
     23483      7828  TIP3      H1             36.6146994280       48.1716675841      -14.6398263352  W2        7828            0.0000000000
     23484      7828  TIP3      H2             36.9321794280       48.7804475841      -13.2905863352  W2        7828            0.0000000000
     23485      7829  TIP3      OH2            50.5115794280       49.5641575841       -7.0382663352  W2        7829            0.0000000000
     23486      7829  TIP3      H1             49.5699494280       49.6225475841       -6.8765763352  W2        7829            0.0000000000
     23487      7829  TIP3      H2             50.7881894280       50.4702075841       -7.1752963352  W2        7829            0.0000000000
     23488      7830  TIP3      OH2            50.8122794280       37.8506875841       -5.6208763352  W2        7830            0.0000000000
     23489      7830  TIP3      H1             50.0761994280       38.4613975841       -5.6587463352  W2        7830            0.0000000000
     23490      7830  TIP3      H2             51.4956794280       38.2655875841       -6.1472363352  W2        7830            0.0000000000
     23491      7831  TIP3      OH2            43.8154194280       35.9374175841       -8.1550763352  W2        7831            0.0000000000
     23492      7831  TIP3      H1             43.6978394280       34.9890175841       -8.2092463352  W2        7831            0.0000000000
     23493      7831  TIP3      H2             42.9604294280       36.2700275841       -7.8819663352  W2        7831            0.0000000000
     23494      7832  TIP3      OH2            48.7636994280       51.3455075841      -10.4131063352  W2        7832            0.0000000000
     23495      7832  TIP3      H1             49.1889294280       50.6382975841      -10.8981463352  W2        7832            0.0000000000
     23496      7832  TIP3      H2             49.0806994280       52.1467775841      -10.8298863352  W2        7832            0.0000000000
     23497      7833  TIP3      OH2            49.9233494280       49.2463575841      -11.9044463352  W2        7833            0.0000000000
     23498      7833  TIP3      H1             49.6658294280       48.5563675841      -12.5158563352  W2        7833            0.0000000000
     23499      7833  TIP3      H2             49.9944294280       48.8034775841      -11.0588563352  W2        7833            0.0000000000
     23500      7834  TIP3      OH2            51.6093694280       47.8130275841       -3.4270963352  W2        7834            0.0000000000
     23501      7834  TIP3      H1             51.7489994280       47.2212775841       -4.1663963352  W2        7834            0.0000000000
     23502      7834  TIP3      H2             51.7766494280       48.6856175841       -3.7832163352  W2        7834            0.0000000000
     23503      7835  TIP3      OH2            46.0819094280       44.7749775841      -13.6544963352  W2        7835            0.0000000000
     23504      7835  TIP3      H1             45.3704594280       45.3099475841      -14.0064463352  W2        7835            0.0000000000
     23505      7835  TIP3      H2             46.7728694280       44.8301875841      -14.3146063352  W2        7835            0.0000000000
     23506      7836  TIP3      OH2            46.1358294280       43.2324075841      -16.6159963352  W2        7836            0.0000000000
     23507      7836  TIP3      H1             46.8368194280       43.2550975841      -15.9645963352  W2        7836            0.0000000000
     23508      7836  TIP3      H2             46.4381194280       42.6043775841      -17.2720663352  W2        7836            0.0000000000
     23509      7837  TIP3      OH2            53.4512994280       44.1528275841       -5.3610563352  W2        7837            0.0000000000
     23510      7837  TIP3      H1             52.7987094280       44.8473875841       -5.2719663352  W2        7837            0.0000000000
     23511      7837  TIP3      H2             53.9163294280       44.3629175841       -6.1708963352  W2        7837            0.0000000000
     23512      7838  TIP3      OH2            49.4876794280       44.9843075841      -12.7029063352  W2        7838            0.0000000000
     23513      7838  TIP3      H1             48.7557794280       45.2126775841      -12.1298463352  W2        7838            0.0000000000
     23514      7838  TIP3      H2             49.9348994280       44.2705775841      -12.2481563352  W2        7838            0.0000000000
     23515      7839  TIP3      OH2            49.3850294280       43.1585675841       -3.6352063352  W2        7839            0.0000000000
     23516      7839  TIP3      H1             49.4649394280       43.9220075841       -3.0633563352  W2        7839            0.0000000000
     23517      7839  TIP3      H2             48.7837994280       43.4378075841       -4.3256963352  W2        7839            0.0000000000
     23518      7840  TIP3      OH2            41.1330494280       45.6149275841      -10.8204063352  W2        7840            0.0000000000
     23519      7840  TIP3      H1             40.8025694280       45.2442675841      -11.6387063352  W2        7840            0.0000000000
     23520      7840  TIP3      H2             41.7214594280       44.9443275841      -10.4735763352  W2        7840            0.0000000000
     23521      7841  TIP3      OH2            42.4997994280       49.0429875841       -8.1391863352  W2        7841            0.0000000000
     23522      7841  TIP3      H1             42.4049294280       48.4642975841       -8.8957263352  W2        7841            0.0000000000
     23523      7841  TIP3      H2             43.2291594280       48.6715575841       -7.6429063352  W2        7841            0.0000000000
     23524      7842  TIP3      OH2            41.4995994280       44.3834875841       -7.1869063352  W2        7842            0.0000000000
     23525      7842  TIP3      H1             42.0648494280       44.5049075841       -7.9497863352  W2        7842            0.0000000000
     23526      7842  TIP3      H2             41.8184894280       45.0209875841       -6.5480563352  W2        7842            0.0000000000
     23527      7843  TIP3      OH2            47.8088194280       49.8866775841       -6.4528563352  W2        7843            0.0000000000
     23528      7843  TIP3      H1             47.5684794280       50.5489875841       -5.8049363352  W2        7843            0.0000000000
     23529      7843  TIP3      H2             47.6106394280       49.0521975841       -6.0278963352  W2        7843            0.0000000000
     23530      7844  TIP3      OH2            42.3796694280       48.7827575841       -2.4697163352  W2        7844            0.0000000000
     23531      7844  TIP3      H1             42.0684194280       49.5650775841       -2.0143963352  W2        7844            0.0000000000
     23532      7844  TIP3      H2             41.7296894280       48.6296675841       -3.1555163352  W2        7844            0.0000000000
     23533      7845  TIP3      OH2            48.3586294280       44.1465975841      -15.0177863352  W2        7845            0.0000000000
     23534      7845  TIP3      H1             48.9381794280       44.2966275841      -14.2708963352  W2        7845            0.0000000000
     23535      7845  TIP3      H2             48.7726294280       44.6173375841      -15.7411463352  W2        7845            0.0000000000
     23536      7846  TIP3      OH2            39.2996594280       44.9808675841       -3.2411463352  W2        7846            0.0000000000
     23537      7846  TIP3      H1             39.3699794280       45.6315475841       -2.5426463352  W2        7846            0.0000000000
     23538      7846  TIP3      H2             38.4088794280       45.0836175841       -3.5760563352  W2        7846            0.0000000000
     23539      7847  TIP3      OH2            46.0851194280       50.8834475841      -11.5824763352  W2        7847            0.0000000000
     23540      7847  TIP3      H1             46.5588794280       51.1790775841      -10.8050563352  W2        7847            0.0000000000
     23541      7847  TIP3      H2             45.5220494280       51.6216075841      -11.8155163352  W2        7847            0.0000000000
     23542      7848  TIP3      OH2            40.6192594280       50.8542575841       -1.7063363352  W2        7848            0.0000000000
     23543      7848  TIP3      H1             40.6267894280       50.7182275841       -2.6537863352  W2        7848            0.0000000000
     23544      7848  TIP3      H2             39.7032994280       50.7370675841       -1.4543363352  W2        7848            0.0000000000
     23545      7849  TIP3      OH2            52.0574694280       35.8966375841      -15.2048163352  W2        7849            0.0000000000
     23546      7849  TIP3      H1             51.1575394280       36.0355375841      -14.9097563352  W2        7849            0.0000000000
     23547      7849  TIP3      H2             52.3093094280       36.7280975841      -15.6066463352  W2        7849            0.0000000000
     23548      7850  TIP3      OH2            40.1233194280       44.6843575841      -13.2311263352  W2        7850            0.0000000000
     23549      7850  TIP3      H1             39.8314494280       45.4525275841      -13.7219963352  W2        7850            0.0000000000
     23550      7850  TIP3      H2             39.4488394280       44.0249775841      -13.3939863352  W2        7850            0.0000000000
     23551      7851  TIP3      OH2            53.2466094280       50.2628775841      -16.8284263352  W2        7851            0.0000000000
     23552      7851  TIP3      H1             53.3199594280       51.2018975841      -16.6578963352  W2        7851            0.0000000000
     23553      7851  TIP3      H2             54.1521194280       49.9577375841      -16.8846963352  W2        7851            0.0000000000
     23554      7852  TIP3      OH2            36.2163294280       47.0472775841       -4.4161463352  W2        7852            0.0000000000
     23555      7852  TIP3      H1             35.7151694280       47.0192175841       -5.2311763352  W2        7852            0.0000000000
     23556      7852  TIP3      H2             36.2216994280       46.1415975841       -4.1064163352  W2        7852            0.0000000000
     23557      7853  TIP3      OH2            35.9665994280       49.8276575841       -7.5321263352  W2        7853            0.0000000000
     23558      7853  TIP3      H1             36.9126594280       49.6833575841       -7.5511763352  W2        7853            0.0000000000
     23559      7853  TIP3      H2             35.8542294280       50.6119375841       -6.9950063352  W2        7853            0.0000000000
     23560      7854  TIP3      OH2            54.1644494280       50.4936275841       -1.8497563352  W2        7854            0.0000000000
     23561      7854  TIP3      H1             54.1151294280       49.5384375841       -1.8869963352  W2        7854            0.0000000000
     23562      7854  TIP3      H2             53.3376794280       50.7611575841       -1.4483763352  W2        7854            0.0000000000
     23563      7855  TIP3      OH2            45.1428494280       50.0675475841       -2.9736163352  W2        7855            0.0000000000
     23564      7855  TIP3      H1             45.2303094280       50.8940075841       -2.4987063352  W2        7855            0.0000000000
     23565      7855  TIP3      H2             44.2793594280       49.7379275841       -2.7246863352  W2        7855            0.0000000000
     23566      7856  TIP3      OH2            45.5574294280       53.8399175841      -13.1675563352  W2        7856            0.0000000000
     23567      7856  TIP3      H1             45.4820294280       53.7186375841      -14.1140363352  W2        7856            0.0000000000
     23568      7856  TIP3      H2             45.5902994280       54.7891875841      -13.0490963352  W2        7856            0.0000000000
     23569      7857  TIP3      OH2            39.2108094280       52.6286175841      -11.3866563352  W2        7857            0.0000000000
     23570      7857  TIP3      H1             39.3628494280       52.2806575841      -10.5080063352  W2        7857            0.0000000000
     23571      7857  TIP3      H2             38.3598494280       52.2723475841      -11.6419363352  W2        7857            0.0000000000
     23572      7858  TIP3      OH2            48.6590294280       52.9939375841      -16.1653163352  W2        7858            0.0000000000
     23573      7858  TIP3      H1             49.0338694280       52.2495475841      -16.6360563352  W2        7858            0.0000000000
     23574      7858  TIP3      H2             48.6633994280       52.7239975841      -15.2469863352  W2        7858            0.0000000000
     23575      7859  TIP3      OH2            48.3278394280       52.9196475841      -13.4160963352  W2        7859            0.0000000000
     23576      7859  TIP3      H1             47.3928194280       53.0198375841      -13.2373963352  W2        7859            0.0000000000
     23577      7859  TIP3      H2             48.6080294280       52.2102475841      -12.8377763352  W2        7859            0.0000000000
     23578      7860  TIP3      OH2            51.3164294280       41.9868775841       -1.3695363352  W2        7860            0.0000000000
     23579      7860  TIP3      H1             50.9091094280       42.4674375841       -2.0902063352  W2        7860            0.0000000000
     23580      7860  TIP3      H2             51.3569994280       41.0814775841       -1.6774563352  W2        7860            0.0000000000
     23581      7861  TIP3      OH2            38.4653794280       48.3708175841       -3.3728663352  W2        7861            0.0000000000
     23582      7861  TIP3      H1             38.6815094280       48.0093775841       -2.5132863352  W2        7861            0.0000000000
     23583      7861  TIP3      H2             37.6098494280       47.9961975841       -3.5825163352  W2        7861            0.0000000000
     23584      7862  TIP3      OH2            41.0841794280       36.8408675841       -7.3774463352  W2        7862            0.0000000000
     23585      7862  TIP3      H1             40.2225494280       36.7536875841       -7.7851563352  W2        7862            0.0000000000
     23586      7862  TIP3      H2             41.0617494280       37.6968775841       -6.9496863352  W2        7862            0.0000000000
     23587      7863  TIP3      OH2            45.7469594280       36.5629075841       -4.0027463352  W2        7863            0.0000000000
     23588      7863  TIP3      H1             46.1672694280       36.1476175841       -3.2496863352  W2        7863            0.0000000000
     23589      7863  TIP3      H2             44.8139194280       36.3842375841       -3.8855463352  W2        7863            0.0000000000
     23590      7864  TIP3      OH2            49.0734494280       40.3184275841       -3.1492963352  W2        7864            0.0000000000
     23591      7864  TIP3      H1             48.5593994280       40.1926475841       -2.3516963352  W2        7864            0.0000000000
     23592      7864  TIP3      H2             48.9179194280       41.2307375841       -3.3936763352  W2        7864            0.0000000000
     23593      7865  TIP3      OH2            49.8359394280       45.1794275841      -17.3879963352  W2        7865            0.0000000000
     23594      7865  TIP3      H1             49.8780194280       44.9568175841      -18.3179963352  W2        7865            0.0000000000
     23595      7865  TIP3      H2             50.6851494280       45.5781375841      -17.1980063352  W2        7865            0.0000000000
     23596      7866  TIP3      OH2            45.4086894280       39.0552475841      -16.7176663352  W2        7866            0.0000000000
     23597      7866  TIP3      H1             45.1551694280       39.0744075841      -15.7948563352  W2        7866            0.0000000000
     23598      7866  TIP3      H2             45.1518994280       38.1837875841      -17.0190463352  W2        7866            0.0000000000
     23599      7867  TIP3      OH2            41.1751894280       41.8063175841       -6.2824263352  W2        7867            0.0000000000
     23600      7867  TIP3      H1             40.5333994280       41.7660475841       -5.5734163352  W2        7867            0.0000000000
     23601      7867  TIP3      H2             41.2123894280       42.7327875841       -6.5201263352  W2        7867            0.0000000000
     23602      7868  TIP3      OH2            41.1720994280       42.0273275841      -11.3704263352  W2        7868            0.0000000000
     23603      7868  TIP3      H1             40.2793894280       41.6869375841      -11.4290463352  W2        7868            0.0000000000
     23604      7868  TIP3      H2             41.6227594280       41.6504175841      -12.1261063352  W2        7868            0.0000000000
     23605      7869  TIP3      OH2            46.7076494280       42.4433575841      -12.5533463352  W2        7869            0.0000000000
     23606      7869  TIP3      H1             46.2986794280       43.2582175841      -12.8448663352  W2        7869            0.0000000000
     23607      7869  TIP3      H2             47.4282694280       42.3033675841      -13.1676363352  W2        7869            0.0000000000
     23608      7870  TIP3      OH2            45.8098094280       42.6189975841       -1.0652763352  W2        7870            0.0000000000
     23609      7870  TIP3      H1             45.2471894280       41.9141575841       -0.7444963352  W2        7870            0.0000000000
     23610      7870  TIP3      H2             46.6361494280       42.4981875841       -0.5975163352  W2        7870            0.0000000000
     23611      7871  TIP3      OH2            47.7124194280       41.8893975841       -9.7393763352  W2        7871            0.0000000000
     23612      7871  TIP3      H1             47.5168694280       42.4950775841      -10.4543163352  W2        7871            0.0000000000
     23613      7871  TIP3      H2             47.8936794280       41.0559175841      -10.1737463352  W2        7871            0.0000000000
     23614      7872  TIP3      OH2            38.9252394280       42.1266675841       -4.4152263352  W2        7872            0.0000000000
     23615      7872  TIP3      H1             38.8871794280       42.5268275841       -3.5465163352  W2        7872            0.0000000000
     23616      7872  TIP3      H2             38.4343494280       41.3099075841       -4.3249363352  W2        7872            0.0000000000
     23617      7873  TIP3      OH2            42.2909794280       39.5008975841      -17.6166263352  W2        7873            0.0000000000
     23618      7873  TIP3      H1             41.8600494280       39.0559075841      -16.8868863352  W2        7873            0.0000000000
     23619      7873  TIP3      H2             41.5728494280       39.8725275841      -18.1288763352  W2        7873            0.0000000000
     23620      7874  TIP3      OH2            35.5333194280       39.2428475841      -10.5647563352  W2        7874            0.0000000000
     23621      7874  TIP3      H1             36.1640894280       39.2140575841       -9.8453663352  W2        7874            0.0000000000
     23622      7874  TIP3      H2             35.9827494280       38.8177175841      -11.2951663352  W2        7874            0.0000000000
     23623      7875  TIP3      OH2            36.8075294280       39.9890475841      -15.1407163352  W2        7875            0.0000000000
     23624      7875  TIP3      H1             37.2816994280       40.5800375841      -15.7256263352  W2        7875            0.0000000000
     23625      7875  TIP3      H2             36.0901694280       40.5193375841      -14.7937063352  W2        7875            0.0000000000
     23626      7876  TIP3      OH2            46.9763394280       43.5275275841       -5.0681363352  W2        7876            0.0000000000
     23627      7876  TIP3      H1             47.2998194280       42.8964975841       -5.7110863352  W2        7876            0.0000000000
     23628      7876  TIP3      H2             46.5362694280       42.9927475841       -4.4073963352  W2        7876            0.0000000000
     23629      7877  TIP3      OH2            43.7536294280       39.4550775841      -10.2840163352  W2        7877            0.0000000000
     23630      7877  TIP3      H1             42.8427394280       39.5117575841       -9.9954163352  W2        7877            0.0000000000
     23631      7877  TIP3      H2             44.2589194280       39.3946275841       -9.4732963352  W2        7877            0.0000000000
     23632      7878  TIP3      OH2            38.5819694280       41.0837075841      -11.4572563352  W2        7878            0.0000000000
     23633      7878  TIP3      H1             37.6927694280       41.1832575841      -11.7972963352  W2        7878            0.0000000000
     23634      7878  TIP3      H2             38.8784594280       40.2420075841      -11.8034663352  W2        7878            0.0000000000
     23635      7879  TIP3      OH2            42.2351494280       41.0839675841      -13.8007963352  W2        7879            0.0000000000
     23636      7879  TIP3      H1             43.1666994280       41.2129675841      -13.6224863352  W2        7879            0.0000000000
     23637      7879  TIP3      H2             42.0201794280       41.7533975841      -14.4503263352  W2        7879            0.0000000000
     23638      7880  TIP3      OH2            48.1588194280       38.6897075841       -7.0198363352  W2        7880            0.0000000000
     23639      7880  TIP3      H1             47.4819794280       38.8210175841       -6.3558663352  W2        7880            0.0000000000
     23640      7880  TIP3      H2             47.6733094280       38.5346575841       -7.8300663352  W2        7880            0.0000000000
     23641      7881  TIP3      OH2            40.9091694280       42.2781875841      -16.2341863352  W2        7881            0.0000000000
     23642      7881  TIP3      H1             40.3666794280       41.8985675841      -16.9254263352  W2        7881            0.0000000000
     23643      7881  TIP3      H2             41.7426594280       42.4726575841      -16.6627763352  W2        7881            0.0000000000
     23644      7882  TIP3      OH2            51.4463294280       54.3612475841       -0.7430763352  W2        7882            0.0000000000
     23645      7882  TIP3      H1             51.6461994280       54.7854375841       -1.5775463352  W2        7882            0.0000000000
     23646      7882  TIP3      H2             52.1016994280       54.7050675841       -0.1360363352  W2        7882            0.0000000000
     23647      7883  TIP3      OH2            39.0443094280       46.8353775841       -1.1350263352  W2        7883            0.0000000000
     23648      7883  TIP3      H1             39.7765494280       47.0899675841       -0.5735763352  W2        7883            0.0000000000
     23649      7883  TIP3      H2             38.2641794280       47.0399175841       -0.6194863352  W2        7883            0.0000000000
     23650      7884  TIP3      OH2            45.0735994280       42.2423775841       -8.3970563352  W2        7884            0.0000000000
     23651      7884  TIP3      H1             45.6379394280       41.6960375841       -8.9440963352  W2        7884            0.0000000000
     23652      7884  TIP3      H2             44.9259394280       41.7205675841       -7.6082963352  W2        7884            0.0000000000
     23653      7885  TIP3      OH2            40.0755694280       38.3789875841      -11.9785763352  W2        7885            0.0000000000
     23654      7885  TIP3      H1             39.7585194280       37.4765175841      -12.0140363352  W2        7885            0.0000000000
     23655      7885  TIP3      H2             40.8569794280       38.3807275841      -12.5314163352  W2        7885            0.0000000000
     23656      7886  TIP3      OH2            43.7001894280       40.6309875841       -5.9830163352  W2        7886            0.0000000000
     23657      7886  TIP3      H1             42.8647194280       41.0849375841       -5.8727763352  W2        7886            0.0000000000
     23658      7886  TIP3      H2             44.2242494280       40.9068375841       -5.2310263352  W2        7886            0.0000000000
     23659      7887  TIP3      OH2            44.2444494280       46.8437575841      -14.2983763352  W2        7887            0.0000000000
     23660      7887  TIP3      H1             43.4995494280       46.3362875841      -14.6205863352  W2        7887            0.0000000000
     23661      7887  TIP3      H2             44.1101694280       46.8925575841      -13.3518963352  W2        7887            0.0000000000
     23662      7888  TIP3      OH2            51.3943394280       45.9765775841       -5.5116163352  W2        7888            0.0000000000
     23663      7888  TIP3      H1             52.0362194280       46.4332075841       -6.0553963352  W2        7888            0.0000000000
     23664      7888  TIP3      H2             50.5640294280       46.0898175841       -5.9742063352  W2        7888            0.0000000000
     23665      7889  TIP3      OH2            48.1421294280       39.6577475841      -16.0991163352  W2        7889            0.0000000000
     23666      7889  TIP3      H1             47.2035494280       39.7693075841      -16.2502363352  W2        7889            0.0000000000
     23667      7889  TIP3      H2             48.4393394280       40.5144375841      -15.7925463352  W2        7889            0.0000000000
     23668      7890  TIP3      OH2            45.7636594280       47.0280875841       -3.0614663352  W2        7890            0.0000000000
     23669      7890  TIP3      H1             45.4182694280       46.6463275841       -2.2545063352  W2        7890            0.0000000000
     23670      7890  TIP3      H2             45.5636694280       47.9614475841       -2.9901763352  W2        7890            0.0000000000
     23671      7891  TIP3      OH2            48.8604794280       41.5250175841      -14.4383763352  W2        7891            0.0000000000
     23672      7891  TIP3      H1             49.7523794280       41.3875175841      -14.1192563352  W2        7891            0.0000000000
     23673      7891  TIP3      H2             48.9168394280       42.3156275841      -14.9750263352  W2        7891            0.0000000000
     23674      7892  TIP3      OH2            39.3692794280       46.1387575841       -8.5285863352  W2        7892            0.0000000000
     23675      7892  TIP3      H1             40.1139994280       46.1363275841       -9.1299363352  W2        7892            0.0000000000
     23676      7892  TIP3      H2             39.4469394280       45.3151375841       -8.0470763352  W2        7892            0.0000000000
     23677      7893  TIP3      OH2            46.3698594280       48.3021875841      -15.2729163352  W2        7893            0.0000000000
     23678      7893  TIP3      H1             46.0746994280       49.1289775841      -14.8914363352  W2        7893            0.0000000000
     23679      7893  TIP3      H2             45.6668594280       47.6828775841      -15.0767763352  W2        7893            0.0000000000
     23680      7894  TIP3      OH2            36.3772494280       44.5994475841       -3.2137363352  W2        7894            0.0000000000
     23681      7894  TIP3      H1             36.6001094280       44.1814075841       -2.3819863352  W2        7894            0.0000000000
     23682      7894  TIP3      H2             35.7752594280       43.9869475841       -3.6364563352  W2        7894            0.0000000000
     23683      7895  TIP3      OH2            43.3937394280       44.1164375841       -1.0007663352  W2        7895            0.0000000000
     23684      7895  TIP3      H1             43.0978194280       43.9507375841       -1.8958563352  W2        7895            0.0000000000
     23685      7895  TIP3      H2             44.3252594280       43.8964675841       -1.0113763352  W2        7895            0.0000000000
     23686      7896  TIP3      OH2            48.0140194280       49.4896375841       -3.1109663352  W2        7896            0.0000000000
     23687      7896  TIP3      H1             47.1134494280       49.6728975841       -3.3785763352  W2        7896            0.0000000000
     23688      7896  TIP3      H2             48.0481294280       49.7485675841       -2.1900863352  W2        7896            0.0000000000
     23689      7897  TIP3      OH2            53.7453494280       41.7344275841      -14.7437063352  W2        7897            0.0000000000
     23690      7897  TIP3      H1             53.1909794280       41.3382275841      -15.4159563352  W2        7897            0.0000000000
     23691      7897  TIP3      H2             53.8457094280       42.6449475841      -15.0213763352  W2        7897            0.0000000000
     23692      7898  TIP3      OH2            53.7085494280       47.5345975841       -1.9065563352  W2        7898            0.0000000000
     23693      7898  TIP3      H1             52.8573994280       47.7729775841       -2.2739163352  W2        7898            0.0000000000
     23694      7898  TIP3      H2             54.2988894280       47.5179175841       -2.6598463352  W2        7898            0.0000000000
     23695      7899  TIP3      OH2            52.0405194280       50.5204675841      -14.2784963352  W2        7899            0.0000000000
     23696      7899  TIP3      H1             51.6676294280       49.6948475841      -13.9694363352  W2        7899            0.0000000000
     23697      7899  TIP3      H2             52.3178694280       50.3374075841      -15.1761563352  W2        7899            0.0000000000
     23698      7900  TIP3      OH2            49.2009094280       45.3284175841       -7.2573063352  W2        7900            0.0000000000
     23699      7900  TIP3      H1             48.2725994280       45.0966075841       -7.2843763352  W2        7900            0.0000000000
     23700      7900  TIP3      H2             49.6520194280       44.5513975841       -7.5874263352  W2        7900            0.0000000000
     23701      7901  TIP3      OH2            41.7442194280       49.6565775841      -11.1244363352  W2        7901            0.0000000000
     23702      7901  TIP3      H1             42.2714394280       50.4300175841      -11.3245563352  W2        7901            0.0000000000
     23703      7901  TIP3      H2             40.8640694280       49.8814975841      -11.4260363352  W2        7901            0.0000000000
     23704      7902  TIP3      OH2            37.4989894280       44.5189875841      -16.5371963352  W2        7902            0.0000000000
     23705      7902  TIP3      H1             38.1149794280       45.1457075841      -16.1577163352  W2        7902            0.0000000000
     23706      7902  TIP3      H2             36.6372494280       44.8349675841      -16.2655463352  W2        7902            0.0000000000
     23707      7903  TIP3      OH2            43.1714494280       47.3195675841      -11.5480063352  W2        7903            0.0000000000
     23708      7903  TIP3      H1             42.9304494280       48.2450075841      -11.5064763352  W2        7903            0.0000000000
     23709      7903  TIP3      H2             42.4308094280       46.8606975841      -11.1516163352  W2        7903            0.0000000000
     23710      7904  TIP3      OH2            43.6861094280       51.4689275841       -5.2328963352  W2        7904            0.0000000000
     23711      7904  TIP3      H1             44.0485794280       52.3234875841       -5.4664563352  W2        7904            0.0000000000
     23712      7904  TIP3      H2             44.2176294280       51.1770875841       -4.4922663352  W2        7904            0.0000000000
     23713      7905  TIP3      OH2            41.8545294280       52.3413275841      -12.0027863352  W2        7905            0.0000000000
     23714      7905  TIP3      H1             40.9045794280       52.4470675841      -11.9514563352  W2        7905            0.0000000000
     23715      7905  TIP3      H2             42.2063394280       53.1620675841      -11.6580363352  W2        7905            0.0000000000
     23716      7906  TIP3      OH2            47.2301894280       47.5679975841       -5.5323363352  W2        7906            0.0000000000
     23717      7906  TIP3      H1             46.8043194280       47.3401675841       -4.7059363352  W2        7906            0.0000000000
     23718      7906  TIP3      H2             47.8107694280       46.8291775841       -5.7148063352  W2        7906            0.0000000000
     23719      7907  TIP3      OH2            49.4330794280       48.4970475841      -16.4584363352  W2        7907            0.0000000000
     23720      7907  TIP3      H1             49.7863894280       48.1170275841      -15.6540863352  W2        7907            0.0000000000
     23721      7907  TIP3      H2             48.4844294280       48.4035275841      -16.3715063352  W2        7907            0.0000000000
     23722      7908  TIP3      OH2            49.8886094280       52.1199475841       -3.0628563352  W2        7908            0.0000000000
     23723      7908  TIP3      H1             49.2869294280       51.5642375841       -3.5582263352  W2        7908            0.0000000000
     23724      7908  TIP3      H2             50.1699794280       52.7869275841       -3.6891163352  W2        7908            0.0000000000
     23725      7909  TIP3      OH2            53.9365194280       52.9762975841      -16.2574163352  W2        7909            0.0000000000
     23726      7909  TIP3      H1             54.6803094280       53.5623475841      -16.3972563352  W2        7909            0.0000000000
     23727      7909  TIP3      H2             53.2423294280       53.5448775841      -15.9241763352  W2        7909            0.0000000000
     23728      7910  TIP3      OH2            38.0111994280       39.3527175841       -3.6555963352  W2        7910            0.0000000000
     23729      7910  TIP3      H1             37.1184294280       39.6912575841       -3.7231963352  W2        7910            0.0000000000
     23730      7910  TIP3      H2             37.9124794280       38.4973275841       -3.2375163352  W2        7910            0.0000000000
     23731      7911  TIP3      OH2            50.2990094280       47.1692475841      -14.2316463352  W2        7911            0.0000000000
     23732      7911  TIP3      H1             50.0217694280       46.4411775841      -13.6755363352  W2        7911            0.0000000000
     23733      7911  TIP3      H2             51.2263094280       47.2884475841      -14.0263863352  W2        7911            0.0000000000
     23734      7912  TIP3      OH2            37.6623994280       51.1571575841       -5.2206563352  W2        7912            0.0000000000
     23735      7912  TIP3      H1             37.8794294280       50.2253975841       -5.2516863352  W2        7912            0.0000000000
     23736      7912  TIP3      H2             37.9087494280       51.4316575841       -4.3373763352  W2        7912            0.0000000000
     23737      7913  TIP3      OH2            43.5238594280       49.6086575841      -18.0114363352  W2        7913            0.0000000000
     23738      7913  TIP3      H1             43.7628394280       48.8604675841      -18.5585463352  W2        7913            0.0000000000
     23739      7913  TIP3      H2             43.2549894280       49.2208275841      -17.1786563352  W2        7913            0.0000000000
     23740      7914  TIP3      OH2            42.4609194280       49.1790375841      -15.5551763352  W2        7914            0.0000000000
     23741      7914  TIP3      H1             42.6077194280       48.6590175841      -14.7650863352  W2        7914            0.0000000000
     23742      7914  TIP3      H2             42.4580894280       50.0857975841      -15.2485863352  W2        7914            0.0000000000
     23743      7915  TIP3      OH2            38.9140294280       46.4313675841      -15.0446363352  W2        7915            0.0000000000
     23744      7915  TIP3      H1             38.2279594280       46.7836175841      -14.4776663352  W2        7915            0.0000000000
     23745      7915  TIP3      H2             39.4368194280       47.1943275841      -15.2912063352  W2        7915            0.0000000000
     23746      7916  TIP3      OH2            46.7455394280       39.0937475841       -4.7657363352  W2        7916            0.0000000000
     23747      7916  TIP3      H1             47.4443294280       39.1676175841       -4.1157663352  W2        7916            0.0000000000
     23748      7916  TIP3      H2             46.3646794280       38.2292475841       -4.6114463352  W2        7916            0.0000000000
     23749      7917  TIP3      OH2            47.5300294280       38.7459175841      -13.6685063352  W2        7917            0.0000000000
     23750      7917  TIP3      H1             47.7498594280       39.2174575841      -14.4719663352  W2        7917            0.0000000000
     23751      7917  TIP3      H2             48.0884294280       39.1401775841      -12.9984463352  W2        7917            0.0000000000
     23752      7918  TIP3      OH2            45.1986394280       50.8763975841      -14.8057563352  W2        7918            0.0000000000
     23753      7918  TIP3      H1             44.3822494280       51.3733675841      -14.7533263352  W2        7918            0.0000000000
     23754      7918  TIP3      H2             45.7282694280       51.3517475841      -15.4458763352  W2        7918            0.0000000000
     23755      7919  TIP3      OH2            44.7300194280       40.4737975841      -12.8336663352  W2        7919            0.0000000000
     23756      7919  TIP3      H1             45.5422794280       40.9781175841      -12.7874963352  W2        7919            0.0000000000
     23757      7919  TIP3      H2             44.4853194280       40.3287675841      -11.9197063352  W2        7919            0.0000000000
     23758      7920  TIP3      OH2            45.2656594280       41.4600675841       -3.6490063352  W2        7920            0.0000000000
     23759      7920  TIP3      H1             45.3846894280       42.0336075841       -2.8919663352  W2        7920            0.0000000000
     23760      7920  TIP3      H2             45.9211194280       40.7720075841       -3.5342263352  W2        7920            0.0000000000
     23761      7921  TIP3      OH2            45.6136894280       37.5550975841      -11.8955563352  W2        7921            0.0000000000
     23762      7921  TIP3      H1             45.2670394280       38.1721575841      -11.2511263352  W2        7921            0.0000000000
     23763      7921  TIP3      H2             46.2723794280       38.0556675841      -12.3770063352  W2        7921            0.0000000000
     23764      7922  TIP3      OH2            42.5369494280       51.9201175841      -14.8240663352  W2        7922            0.0000000000
     23765      7922  TIP3      H1             42.6978194280       52.7198675841      -15.3248063352  W2        7922            0.0000000000
     23766      7922  TIP3      H2             42.3397294280       52.2267175841      -13.9390063352  W2        7922            0.0000000000
     23767      7923  TIP3      OH2            41.2713894280       38.6180375841      -15.2083063352  W2        7923            0.0000000000
     23768      7923  TIP3      H1             41.1878694280       39.5063475841      -14.8616663352  W2        7923            0.0000000000
     23769      7923  TIP3      H2             42.1614194280       38.3527075841      -14.9766263352  W2        7923            0.0000000000
     23770      7924  TIP3      OH2            51.4702394280       39.3670975841       -2.8140363352  W2        7924            0.0000000000
     23771      7924  TIP3      H1             50.5538194280       39.6292675841       -2.9016663352  W2        7924            0.0000000000
     23772      7924  TIP3      H2             51.8057394280       39.3639975841       -3.7105063352  W2        7924            0.0000000000
     23773      7925  TIP3      OH2            50.0723394280       43.1171975841       -8.7183063352  W2        7925            0.0000000000
     23774      7925  TIP3      H1             49.2747794280       42.7022175841       -9.0468063352  W2        7925            0.0000000000
     23775      7925  TIP3      H2             50.5174494280       42.4265675841       -8.2272563352  W2        7925            0.0000000000
     23776      7926  TIP3      OH2            39.5299194280       49.0452575841      -16.1478563352  W2        7926            0.0000000000
     23777      7926  TIP3      H1             40.1220694280       49.7447375841      -15.8716163352  W2        7926            0.0000000000
     23778      7926  TIP3      H2             39.9892194280       48.6122075841      -16.8673963352  W2        7926            0.0000000000
     23779      7927  TIP3      OH2            37.8458394280       41.7095575841      -17.0319163352  W2        7927            0.0000000000
     23780      7927  TIP3      H1             37.8010994280       42.6488675841      -16.8532163352  W2        7927            0.0000000000
     23781      7927  TIP3      H2             36.9581594280       41.4740475841      -17.3017063352  W2        7927            0.0000000000
     23782      7928  TIP3      OH2            51.1587994280       52.3734475841       -7.0959563352  W2        7928            0.0000000000
     23783      7928  TIP3      H1             51.0032294280       53.0518875841       -7.7530263352  W2        7928            0.0000000000
     23784      7928  TIP3      H2             52.0914394280       52.4453775841       -6.8928963352  W2        7928            0.0000000000
     23785      7929  TIP3      OH2            38.6540394280       36.4912175841       -8.3588163352  W2        7929            0.0000000000
     23786      7929  TIP3      H1             38.4250194280       36.5504675841       -9.2863163352  W2        7929            0.0000000000
     23787      7929  TIP3      H2             38.2113794280       35.6997675841       -8.0524063352  W2        7929            0.0000000000
     23788      7930  TIP3      OH2            37.5843694280       50.4319275841      -12.1982363352  W2        7930            0.0000000000
     23789      7930  TIP3      H1             36.7522294280       50.9041975841      -12.1710963352  W2        7930            0.0000000000
     23790      7930  TIP3      H2             38.1301994280       50.9416875841      -12.7969263352  W2        7930            0.0000000000
     23791      7931  TIP3      OH2            36.8727394280       53.0442975841       -0.8684363352  W2        7931            0.0000000000
     23792      7931  TIP3      H1             37.4129594280       52.8276975841       -0.1085163352  W2        7931            0.0000000000
     23793      7931  TIP3      H2             36.3915394280       52.2388975841       -1.0581863352  W2        7931            0.0000000000
     23794      7932  TIP3      OH2            41.4700794280       51.9637375841        0.7519836648  W2        7932            0.0000000000
     23795      7932  TIP3      H1             42.2377994280       51.5048175841        1.0929036648  W2        7932            0.0000000000
     23796      7932  TIP3      H2             41.4486994280       51.7377175841       -0.1778963352  W2        7932            0.0000000000
     23797      7933  TIP3      OH2            45.5620394280       51.4717975841      -17.8728363352  W2        7933            0.0000000000
     23798      7933  TIP3      H1             44.9181394280       50.8406575841      -17.5514663352  W2        7933            0.0000000000
     23799      7933  TIP3      H2             46.3238694280       50.9405975841      -18.1044863352  W2        7933            0.0000000000
     23800      7934  TIP3      OH2            48.0469494280       50.3438475841       -0.5188663352  W2        7934            0.0000000000
     23801      7934  TIP3      H1             47.6958994280       49.4871475841       -0.2758263352  W2        7934            0.0000000000
     23802      7934  TIP3      H2             48.7732694280       50.4865175841        0.0880336648  W2        7934            0.0000000000
     23803      7935  TIP3      OH2            50.1663294280       51.2887875841      -17.6390363352  W2        7935            0.0000000000
     23804      7935  TIP3      H1             50.4493694280       50.4943075841      -17.1863463352  W2        7935            0.0000000000
     23805      7935  TIP3      H2             50.9061194280       51.5218875841      -18.1999263352  W2        7935            0.0000000000
     23806      7936  TIP3      OH2            36.7796894280       46.8547075841        0.0859936648  W2        7936            0.0000000000
     23807      7936  TIP3      H1             36.9237394280       45.9527775841       -0.2003363352  W2        7936            0.0000000000
     23808      7936  TIP3      H2             36.0074294280       47.1409175841       -0.4017763352  W2        7936            0.0000000000
     23809      7937  TIP3      OH2            41.1210594280       47.1982775841      -17.7815463352  W2        7937            0.0000000000
     23810      7937  TIP3      H1             41.1854694280       46.4042375841      -17.2509063352  W2        7937            0.0000000000
     23811      7937  TIP3      H2             41.7739794280       47.0795575841      -18.4713463352  W2        7937            0.0000000000
     23812      7938  TIP3      OH2            43.4352994280       46.8245175841       -0.4813663352  W2        7938            0.0000000000
     23813      7938  TIP3      H1             43.1066794280       47.0953275841       -1.3386263352  W2        7938            0.0000000000
     23814      7938  TIP3      H2             43.5871194280       45.8834975841       -0.5688663352  W2        7938            0.0000000000
     23815      7939  TIP3      OH2            46.4733994280       48.2454475841      -18.0457463352  W2        7939            0.0000000000
     23816      7939  TIP3      H1             46.2048094280       48.4256575841      -17.1448563352  W2        7939            0.0000000000
     23817      7939  TIP3      H2             46.2669594280       47.3200675841      -18.1771663352  W2        7939            0.0000000000
     23818      7940  TIP3      OH2            49.1698194280       46.7402475841       -3.0981363352  W2        7940            0.0000000000
     23819      7940  TIP3      H1             49.9152994280       47.3286175841       -3.2177363352  W2        7940            0.0000000000
     23820      7940  TIP3      H2             48.4124994280       47.3222175841       -3.0348263352  W2        7940            0.0000000000
     23821      7941  TIP3      OH2            37.6123394280       44.0550375841       -0.4940763352  W2        7941            0.0000000000
     23822      7941  TIP3      H1             38.0204594280       43.1976975841       -0.6150163352  W2        7941            0.0000000000
     23823      7941  TIP3      H2             37.3520994280       44.0691675841        0.4269536648  W2        7941            0.0000000000
     23824      7942  TIP3      OH2            42.2704394280       45.1708975841      -15.4757463352  W2        7942            0.0000000000
     23825      7942  TIP3      H1             41.8106394280       44.6867275841      -14.7898963352  W2        7942            0.0000000000
     23826      7942  TIP3      H2             42.5253094280       44.5024375841      -16.1116963352  W2        7942            0.0000000000
     23827      7943  TIP3      OH2            41.5593694280       43.0636075841       -3.1197863352  W2        7943            0.0000000000
     23828      7943  TIP3      H1             40.9409794280       43.7382675841       -2.8393163352  W2        7943            0.0000000000
     23829      7943  TIP3      H2             41.9034894280       43.3849975841       -3.9531663352  W2        7943            0.0000000000
     23830      7944  TIP3      OH2            43.3414794280       43.4140775841      -17.2134263352  W2        7944            0.0000000000
     23831      7944  TIP3      H1             43.1609794280       43.2591975841      -18.1405963352  W2        7944            0.0000000000
     23832      7944  TIP3      H2             44.2915294280       43.5219475841      -17.1686363352  W2        7944            0.0000000000
     23833      7945  TIP3      OH2            46.5791894280       45.5351375841        0.1576936648  W2        7945            0.0000000000
     23834      7945  TIP3      H1             47.5323094280       45.6190475841        0.1302936648  W2        7945            0.0000000000
     23835      7945  TIP3      H2             46.4186494280       44.8233175841        0.7771836648  W2        7945            0.0000000000
     23836      7946  TIP3      OH2            52.7313094280       45.7684975841      -17.7676163352  W2        7946            0.0000000000
     23837      7946  TIP3      H1             52.4577894280       45.3440475841      -18.5807863352  W2        7946            0.0000000000
     23838      7946  TIP3      H2             52.7707194280       46.6999475841      -17.9845763352  W2        7946            0.0000000000
     23839      7947  TIP3      OH2            41.8987394280       40.4186875841       -2.0374763352  W2        7947            0.0000000000
     23840      7947  TIP3      H1             42.0488294280       39.6898175841       -2.6395063352  W2        7947            0.0000000000
     23841      7947  TIP3      H2             41.9009794280       41.1958575841       -2.5962563352  W2        7947            0.0000000000
     23842      7948  TIP3      OH2            42.3113094280       38.7882675841       -4.5447363352  W2        7948            0.0000000000
     23843      7948  TIP3      H1             42.8470594280       39.2399375841       -5.1968063352  W2        7948            0.0000000000
     23844      7948  TIP3      H2             41.4592694280       38.6802475841       -4.9673263352  W2        7948            0.0000000000
     23845      7949  TIP3      OH2            43.8931494280       44.2278875841       -4.3052163352  W2        7949            0.0000000000
     23846      7949  TIP3      H1             44.6436294280       44.0716375841       -4.8784363352  W2        7949            0.0000000000
     23847      7949  TIP3      H2             43.5539794280       45.0795475841       -4.5806663352  W2        7949            0.0000000000
     23848      7950  TIP3      OH2            48.3087694280       42.0430675841        0.7233136648  W2        7950            0.0000000000
     23849      7950  TIP3      H1             48.5008994280       41.1120075841        0.6117636648  W2        7950            0.0000000000
     23850      7950  TIP3      H2             49.1663994280       42.4680175841        0.7128536648  W2        7950            0.0000000000
     23851      7951  TIP3      OH2            49.6254894280       44.8315875841       -1.1994163352  W2        7951            0.0000000000
     23852      7951  TIP3      H1             49.3439894280       45.5410475841       -1.7770363352  W2        7951            0.0000000000
     23853      7951  TIP3      H2             50.5679194280       44.7588875841       -1.3502963352  W2        7951            0.0000000000
     23854      7952  TIP3      OH2            40.3773694280       41.6170375841       -0.1259163352  W2        7952            0.0000000000
     23855      7952  TIP3      H1             39.6102694280       41.0845175841       -0.3361563352  W2        7952            0.0000000000
     23856      7952  TIP3      H2             41.0562694280       41.3070775841       -0.7252863352  W2        7952            0.0000000000
     23857      7953  TIP3      OH2            43.1168594280       36.2448375841       -4.1133763352  W2        7953            0.0000000000
     23858      7953  TIP3      H1             43.0188194280       37.1911575841       -4.2187563352  W2        7953            0.0000000000
     23859      7953  TIP3      H2             42.3744794280       35.8722175841       -4.5890263352  W2        7953            0.0000000000
     23860      7954  TIP3      OH2            44.3809094280       40.5663775841       -0.5495363352  W2        7954            0.0000000000
     23861      7954  TIP3      H1             44.1454494280       40.3470475841        0.3519536648  W2        7954            0.0000000000
     23862      7954  TIP3      H2             43.5975994280       40.3594975841       -1.0592863352  W2        7954            0.0000000000
     23863      7955  TIP3      OH2            47.0965694280       39.6937275841       -1.4741863352  W2        7955            0.0000000000
     23864      7955  TIP3      H1             46.1491094280       39.7256975841       -1.3418563352  W2        7955            0.0000000000
     23865      7955  TIP3      H2             47.4092394280       39.0684375841       -0.8203663352  W2        7955            0.0000000000
     23866      7956  TIP3      OH2            48.7307194280       38.3278375841        0.5310036648  W2        7956            0.0000000000
     23867      7956  TIP3      H1             48.6338994280       37.3755675841        0.5251936648  W2        7956            0.0000000000
     23868      7956  TIP3      H2             48.4090294280       38.5965175841        1.3915536648  W2        7956            0.0000000000
     23869      7957  TIP3      OH2            38.5576494280       39.5374175841       -0.4214463352  W2        7957            0.0000000000
     23870      7957  TIP3      H1             38.7693894280       38.8310275841       -1.0316963352  W2        7957            0.0000000000
     23871      7957  TIP3      H2             38.4463994280       39.1000175841        0.4226736648  W2        7957            0.0000000000
     23872      7958  TIP3      OH2            43.3386694280       35.5385775841       -1.4420963352  W2        7958            0.0000000000
     23873      7958  TIP3      H1             44.0505094280       34.8987975841       -1.4561863352  W2        7958            0.0000000000
     23874      7958  TIP3      H2             43.2377094280       35.8054075841       -2.3557863352  W2        7958            0.0000000000
     23875      7959  TIP3      OH2            43.6924194280       37.2214175841        0.6115336648  W2        7959            0.0000000000
     23876      7959  TIP3      H1             43.5606394280       36.7457975841       -0.2086163352  W2        7959            0.0000000000
     23877      7959  TIP3      H2             43.0931594280       37.9657775841        0.5562436648  W2        7959            0.0000000000
     23878      7960  TIP3      OH2            43.2386494280       54.1044475841      -16.2120663352  W2        7960            0.0000000000
     23879      7960  TIP3      H1             44.1717194280       54.2623175841      -16.0682263352  W2        7960            0.0000000000
     23880      7960  TIP3      H2             42.9745294280       54.7797475841      -16.8369163352  W2        7960            0.0000000000
     23881      7961  TIP3      OH2            36.8071394280       48.7408275841      -16.7292563352  W2        7961            0.0000000000
     23882      7961  TIP3      H1             37.7210594280       48.8197175841      -16.4558663352  W2        7961            0.0000000000
     23883      7961  TIP3      H2             36.8144494280       48.0537875841      -17.3956963352  W2        7961            0.0000000000
     23884      7962  TIP3      OH2            35.4561994280       54.1336775841      -11.6518663352  W2        7962            0.0000000000
     23885      7962  TIP3      H1             34.8089094280       53.6718475841      -12.1847463352  W2        7962            0.0000000000
     23886      7962  TIP3      H2             35.8106594280       53.4620075841      -11.0692463352  W2        7962            0.0000000000
     23887      7963  TIP3      OH2            36.3261194280       52.2143775841       -9.8472463352  W2        7963            0.0000000000
     23888      7963  TIP3      H1             35.9917994280       51.3341075841       -9.6752263352  W2        7963            0.0000000000
     23889      7963  TIP3      H2             36.5483594280       52.5598775841       -8.9826863352  W2        7963            0.0000000000
     23890      7964  TIP3      OH2            53.8745994280       53.0240175841       -6.8667663352  W2        7964            0.0000000000
     23891      7964  TIP3      H1             53.8532694280       53.2088575841       -5.9278263352  W2        7964            0.0000000000
     23892      7964  TIP3      H2             54.5652194280       53.5924175841       -7.2076263352  W2        7964            0.0000000000
     23893      7965  TIP3      OH2            53.4378894280       52.5911275841       -3.9448563352  W2        7965            0.0000000000
     23894      7965  TIP3      H1             52.9507594280       51.8555375841       -4.3161163352  W2        7965            0.0000000000
     23895      7965  TIP3      H2             53.9871594280       52.1975175841       -3.2669163352  W2        7965            0.0000000000
     23896      7966  TIP3      OH2            51.8886194280       48.3809375841        0.6931736648  W2        7966            0.0000000000
     23897      7966  TIP3      H1             51.0227294280       48.2759075841        1.0874036648  W2        7966            0.0000000000
     23898      7966  TIP3      H2             52.2652094280       49.1392675841        1.1396436648  W2        7966            0.0000000000
     23899      7967  TIP3      OH2            53.1895894280       46.6373075841      -13.7925763352  W2        7967            0.0000000000
     23900      7967  TIP3      H1             54.0397294280       47.0583975841      -13.6654163352  W2        7967            0.0000000000
     23901      7967  TIP3      H2             53.1950994280       45.8973175841      -13.1854363352  W2        7967            0.0000000000
     23902      7968  TIP3      OH2            53.5841494280       44.6910475841      -11.9690063352  W2        7968            0.0000000000
     23903      7968  TIP3      H1             52.8576094280       44.2113075841      -11.5712463352  W2        7968            0.0000000000
     23904      7968  TIP3      H2             54.1654794280       44.8965175841      -11.2368463352  W2        7968            0.0000000000
     23905      7969  TIP3      OH2            53.3432694280       47.4757975841       -7.0212463352  W2        7969            0.0000000000
     23906      7969  TIP3      H1             54.1766894280       47.0977975841       -7.3018863352  W2        7969            0.0000000000
     23907      7969  TIP3      H2             53.4552994280       48.4189175841       -7.1403363352  W2        7969            0.0000000000
     23908      7970  TIP3      OH2            51.8294994280       50.3535475841       -4.7144063352  W2        7970            0.0000000000
     23909      7970  TIP3      H1             51.1820294280       50.6786975841       -4.0888863352  W2        7970            0.0000000000
     23910      7970  TIP3      H2             51.3118994280       49.9133175841       -5.3885763352  W2        7970            0.0000000000
     23911      7971  TIP3      OH2            53.8524594280       44.5918975841      -15.5778763352  W2        7971            0.0000000000
     23912      7971  TIP3      H1             53.3305694280       44.9483075841      -16.2967863352  W2        7971            0.0000000000
     23913      7971  TIP3      H2             53.8193794280       45.2666775841      -14.8997863352  W2        7971            0.0000000000
     23914      7972  TIP3      OH2            52.2013594280       41.8314575841      -17.0271663352  W2        7972            0.0000000000
     23915      7972  TIP3      H1             52.2977994280       42.4981575841      -17.7071963352  W2        7972            0.0000000000
     23916      7972  TIP3      H2             52.0613194280       41.0160875841      -17.5086163352  W2        7972            0.0000000000
     23917      7973  TIP3      OH2            51.3708294280       43.2116975841      -11.4061363352  W2        7973            0.0000000000
     23918      7973  TIP3      H1             51.2207094280       42.2665575841      -11.4263563352  W2        7973            0.0000000000
     23919      7973  TIP3      H2             51.0172794280       43.4928375841      -10.5622263352  W2        7973            0.0000000000
     23920      7974  TIP3      OH2            36.4060694280       45.2899175841       -7.3957563352  W2        7974            0.0000000000
     23921      7974  TIP3      H1             36.5903594280       45.2080875841       -8.3314663352  W2        7974            0.0000000000
     23922      7974  TIP3      H2             37.2553594280       45.1656175841       -6.9721163352  W2        7974            0.0000000000
     23923      7975  TIP3      OH2            52.2271194280       45.1820275841       -1.7673063352  W2        7975            0.0000000000
     23924      7975  TIP3      H1             52.8098494280       44.4472575841       -1.5755863352  W2        7975            0.0000000000
     23925      7975  TIP3      H2             52.7910494280       45.9540575841       -1.7207263352  W2        7975            0.0000000000
     23926      7976  TIP3      OH2            53.7238294280       43.0846075841       -1.0827663352  W2        7976            0.0000000000
     23927      7976  TIP3      H1             52.8604994280       42.7058175841       -1.2482963352  W2        7976            0.0000000000
     23928      7976  TIP3      H2             54.3281994280       42.3460875841       -1.1571863352  W2        7976            0.0000000000
     23929      7977  TIP3      OH2            51.4487394280       39.2394375841      -17.9096163352  W2        7977            0.0000000000
     23930      7977  TIP3      H1             52.0593194280       38.8681175841      -17.2727963352  W2        7977            0.0000000000
     23931      7977  TIP3      H2             50.6118894280       38.8181275841      -17.7136163352  W2        7977            0.0000000000
     23932      7978  TIP3      OH2            51.0813094280       40.7942775841      -12.9436263352  W2        7978            0.0000000000
     23933      7978  TIP3      H1             51.3610194280       39.8873175841      -12.8194563352  W2        7978            0.0000000000
     23934      7978  TIP3      H2             51.8404794280       41.2284275841      -13.3327063352  W2        7978            0.0000000000
     23935      7979  TIP3      OH2            51.6931394280       41.3760175841       -7.5077363352  W2        7979            0.0000000000
     23936      7979  TIP3      H1             52.6259394280       41.5880075841       -7.5421363352  W2        7979            0.0000000000
     23937      7979  TIP3      H2             51.4578894280       41.4772275841       -6.5854363352  W2        7979            0.0000000000
     23938      7980  TIP3      OH2            51.7223294280       42.1125475841       -4.7317963352  W2        7980            0.0000000000
     23939      7980  TIP3      H1             50.8794594280       42.3805875841       -4.3658163352  W2        7980            0.0000000000
     23940      7980  TIP3      H2             52.1647594280       42.9347375841       -4.9426863352  W2        7980            0.0000000000
     23941      7981  TIP3      OH2            36.0035494280       40.5604175841       -1.2548763352  W2        7981            0.0000000000
     23942      7981  TIP3      H1             36.9230394280       40.4382475841       -1.0185663352  W2        7981            0.0000000000
     23943      7981  TIP3      H2             35.5539994280       39.8103875841       -0.8655263352  W2        7981            0.0000000000
     23944      7982  TIP3      OH2            54.0054894280       36.0925675841        0.6217036648  W2        7982            0.0000000000
     23945      7982  TIP3      H1             54.3551894280       35.4389175841        0.0161736648  W2        7982            0.0000000000
     23946      7982  TIP3      H2             54.1524394280       36.9299775841        0.1819636648  W2        7982            0.0000000000
     23947      7983  TIP3      OH2            51.6947894280       38.0572075841      -12.8954263352  W2        7983            0.0000000000
     23948      7983  TIP3      H1             51.8772894280       37.6083575841      -12.0699263352  W2        7983            0.0000000000
     23949      7983  TIP3      H2             51.0950794280       37.4726475841      -13.3589663352  W2        7983            0.0000000000
     23950      7984  TIP3      OH2            37.2247994280       38.8725775841       -8.3635863352  W2        7984            0.0000000000
     23951      7984  TIP3      H1             37.6699594280       38.0808275841       -8.0616163352  W2        7984            0.0000000000
     23952      7984  TIP3      H2             37.6910994280       39.5890975841       -7.9330263352  W2        7984            0.0000000000
     23953      7985  TIP3      OH2            35.5288294280       41.8718775841       -7.2945663352  W2        7985            0.0000000000
     23954      7985  TIP3      H1             36.0208094280       41.6509275841       -8.0853663352  W2        7985            0.0000000000
     23955      7985  TIP3      H2             35.8909194280       42.7122175841       -7.0136163352  W2        7985            0.0000000000
     23956      7986  TIP3      OH2            53.5252094280       38.2020275841       -1.0291663352  W2        7986            0.0000000000
     23957      7986  TIP3      H1             52.6077794280       38.4727375841       -1.0648163352  W2        7986            0.0000000000
     23958      7986  TIP3      H2             53.6481494280       37.6668675841       -1.8131963352  W2        7986            0.0000000000
     23959      7987  TIP3      OH2            53.5614094280       38.1250175841      -16.3673963352  W2        7987            0.0000000000
     23960      7987  TIP3      H1             53.9736694280       37.4035875841      -16.8425963352  W2        7987            0.0000000000
     23961      7987  TIP3      H2             54.2430594280       38.7944775841      -16.3089663352  W2        7987            0.0000000000
     23962      7988  TIP3      OH2            35.8424794280       38.1297875841      -13.2403263352  W2        7988            0.0000000000
     23963      7988  TIP3      H1             34.9173194280       38.3384475841      -13.3697763352  W2        7988            0.0000000000
     23964      7988  TIP3      H2             36.2964694280       38.6138675841      -13.9300963352  W2        7988            0.0000000000
     23965      7989  TIP3      OH2            50.6131994280       53.1139575841      -11.2945863352  W2        7989            0.0000000000
     23966      7989  TIP3      H1             51.2654894280       52.7661675841      -11.9026763352  W2        7989            0.0000000000
     23967      7989  TIP3      H2             51.1235794280       53.6022775841      -10.6486163352  W2        7989            0.0000000000
     23968      7990  TIP3      OH2            35.8060194280       36.8676875841       -4.8960763352  W2        7990            0.0000000000
     23969      7990  TIP3      H1             35.1410694280       36.6217175841       -4.2529863352  W2        7990            0.0000000000
     23970      7990  TIP3      H2             35.3631494280       37.4897275841       -5.4732763352  W2        7990            0.0000000000
     23971      7991  TIP3      OH2            37.9979494280       50.0430975841       -0.7514963352  W2        7991            0.0000000000
     23972      7991  TIP3      H1             37.1771994280       50.2177475841       -1.2120263352  W2        7991            0.0000000000
     23973      7991  TIP3      H2             37.7457294280       49.9695675841        0.1689436648  W2        7991            0.0000000000
     23974      7992  TIP3      OH2            40.9522394280       51.0172175841       -4.4930963352  W2        7992            0.0000000000
     23975      7992  TIP3      H1             40.5273494280       51.8270675841       -4.7756363352  W2        7992            0.0000000000
     23976      7992  TIP3      H2             41.8565194280       51.1026275841       -4.7951163352  W2        7992            0.0000000000
     23977      7993  TIP3      OH2            45.2633794280       52.4162175841       -1.5337263352  W2        7993            0.0000000000
     23978      7993  TIP3      H1             45.4481294280       52.0828275841       -0.6556963352  W2        7993            0.0000000000
     23979      7993  TIP3      H2             46.1098294280       52.7260775841       -1.8558063352  W2        7993            0.0000000000
     23980      7994  TIP3      OH2            47.6084194280       53.7021075841       -2.2895863352  W2        7994            0.0000000000
     23981      7994  TIP3      H1             48.2853094280       53.0693375841       -2.5296663352  W2        7994            0.0000000000
     23982      7994  TIP3      H2             47.9302994280       54.1031575841       -1.4822563352  W2        7994            0.0000000000
     23983      7995  TIP3      OH2            52.5257994280       36.2916575841       -3.2100863352  W2        7995            0.0000000000
     23984      7995  TIP3      H1             51.7131494280       36.6166875841       -3.5976163352  W2        7995            0.0000000000
     23985      7995  TIP3      H2             52.7586494280       35.5315075841       -3.7431763352  W2        7995            0.0000000000
     23986      7996  TIP3      OH2            38.3539094280       54.2736075841       -4.4455663352  W2        7996            0.0000000000
     23987      7996  TIP3      H1             37.6335494280       54.7137075841       -4.8967963352  W2        7996            0.0000000000
     23988      7996  TIP3      H2             37.9883094280       54.0230775841       -3.5971663352  W2        7996            0.0000000000
     23989      7997  TIP3      OH2            40.8211694280       53.8739975841       -5.4158463352  W2        7997            0.0000000000
     23990      7997  TIP3      H1             39.9563894280       53.9458475841       -5.0118363352  W2        7997            0.0000000000
     23991      7997  TIP3      H2             40.7660694280       54.4207275841       -6.1995963352  W2        7997            0.0000000000
     23992      7998  TIP3      OH2            45.5317294280       53.7618875841       -6.2402463352  W2        7998            0.0000000000
     23993      7998  TIP3      H1             45.0751294280       54.2908575841       -6.8944063352  W2        7998            0.0000000000
     23994      7998  TIP3      H2             45.6945294280       54.3650275841       -5.5150163352  W2        7998            0.0000000000
     23995      7999  TIP3      OH2            47.8593594280       52.6398475841       -5.2952163352  W2        7999            0.0000000000
     23996      7999  TIP3      H1             46.9547294280       52.8048675841       -5.5610063352  W2        7999            0.0000000000
     23997      7999  TIP3      H2             48.2882194280       53.4930675841       -5.3608763352  W2        7999            0.0000000000
     23998      8000  TIP3      OH2            50.4635494280       54.2097575841       -5.0004363352  W2        8000            0.0000000000
     23999      8000  TIP3      H1             50.2817494280       55.1256475841       -5.2109463352  W2        8000            0.0000000000
     24000      8000  TIP3      H2             50.6403294280       53.7994675841       -5.8469763352  W2        8000            0.0000000000
     24001      8001  TIP3      OH2            37.7687194280       52.8968575841       -7.5353863352  W2        8001            0.0000000000
     24002      8001  TIP3      H1             37.7503194280       52.4713675841       -6.6781563352  W2        8001            0.0000000000
     24003      8001  TIP3      H2             38.5735094280       52.5783575841       -7.9441663352  W2        8001            0.0000000000
     24004      8002  TIP3      OH2            39.9100294280       51.6067275841       -8.8803963352  W2        8002            0.0000000000
     24005      8002  TIP3      H1             39.6910994280       50.6904675841       -8.7107963352  W2        8002            0.0000000000
     24006      8002  TIP3      H2             40.7342494280       51.7467675841       -8.4142563352  W2        8002            0.0000000000
     24007      8003  TIP3      OH2            42.4472794280       52.0766575841       -8.0315963352  W2        8003            0.0000000000
     24008      8003  TIP3      H1             42.6598494280       51.1885575841       -8.3185063352  W2        8003            0.0000000000
     24009      8003  TIP3      H2             42.5117894280       52.0424275841       -7.0771963352  W2        8003            0.0000000000
     24010      8004  TIP3      OH2            45.9556494280       37.7407175841       -8.8872663352  W2        8004            0.0000000000
     24011      8004  TIP3      H1             45.2813294280       37.1112775841       -8.6316863352  W2        8004            0.0000000000
     24012      8004  TIP3      H2             46.5195694280       37.2566075841       -9.4904763352  W2        8004            0.0000000000
     24013      8005  TIP3      OH2            51.0983694280       35.8481175841       -8.7745563352  W2        8005            0.0000000000
     24014      8005  TIP3      H1             51.7021294280       36.3956575841       -9.2764563352  W2        8005            0.0000000000
     24015      8005  TIP3      H2             50.2285694280       36.1671575841       -9.0151463352  W2        8005            0.0000000000
     24016      8006  TIP3      OH2            52.8254094280       36.9869875841      -10.4414663352  W2        8006            0.0000000000
     24017      8006  TIP3      H1             53.4371594280       36.4725575841      -10.9681063352  W2        8006            0.0000000000
     24018      8006  TIP3      H2             53.2077494280       37.8641975841      -10.4180263352  W2        8006            0.0000000000
     24019      8007  TIP3      OH2            38.2823994280       36.3747475841      -11.0652763352  W2        8007            0.0000000000
     24020      8007  TIP3      H1             37.5053794280       36.1402375841      -11.5726863352  W2        8007            0.0000000000
     24021      8007  TIP3      H2             38.8127594280       35.5779575841      -11.0564763352  W2        8007            0.0000000000
     24022      8008  TIP3      OH2            37.1187394280       36.1725575841      -15.2616663352  W2        8008            0.0000000000
     24023      8008  TIP3      H1             37.5578094280       36.7836075841      -15.8533163352  W2        8008            0.0000000000
     24024      8008  TIP3      H2             36.4849794280       36.7109675841      -14.7876663352  W2        8008            0.0000000000
     24025      8009  TIP3      OH2            42.8616594280       36.3014575841      -11.2519663352  W2        8009            0.0000000000
     24026      8009  TIP3      H1             43.7359994280       36.6898875841      -11.2815363352  W2        8009            0.0000000000
     24027      8009  TIP3      H2             42.7257394280       36.0862375841      -10.3292463352  W2        8009            0.0000000000
     24028      8010  TIP3      OH2            48.4184994280       36.3314375841       -9.6027963352  W2        8010            0.0000000000
     24029      8010  TIP3      H1             48.4946594280       36.4265975841      -10.5521963352  W2        8010            0.0000000000
     24030      8010  TIP3      H2             48.1434194280       35.4237275841       -9.4738863352  W2        8010            0.0000000000
     24031      8011  TIP3      OH2            49.7717594280       36.3572175841      -13.9102963352  W2        8011            0.0000000000
     24032      8011  TIP3      H1             49.0688694280       36.9721375841      -14.1201563352  W2        8011            0.0000000000
     24033      8011  TIP3      H2             49.3268994280       35.5198875841      -13.7792063352  W2        8011            0.0000000000
     24034      8012  TIP3      OH2            37.0196894280       52.1207775841      -14.3641563352  W2        8012            0.0000000000
     24035      8012  TIP3      H1             36.3346794280       52.0826675841      -15.0316463352  W2        8012            0.0000000000
     24036      8012  TIP3      H2             37.0234094280       53.0335375841      -14.0759463352  W2        8012            0.0000000000
     24037      8013  TIP3      OH2            38.9796494280       38.0887075841      -16.8192563352  W2        8013            0.0000000000
     24038      8013  TIP3      H1             39.4709894280       37.4589475841      -17.3467063352  W2        8013            0.0000000000
     24039      8013  TIP3      H2             39.6032794280       38.3846475841      -16.1561363352  W2        8013            0.0000000000
     24040      8014  TIP3      OH2            44.0056594280       38.3818575841      -14.3622063352  W2        8014            0.0000000000
     24041      8014  TIP3      H1             44.1837894280       37.7351775841      -13.6793463352  W2        8014            0.0000000000
     24042      8014  TIP3      H2             43.9522794280       39.2156275841      -13.8950963352  W2        8014            0.0000000000
     24043      8015  TIP3      OH2            45.8840394280       53.3302675841      -15.9665363352  W2        8015            0.0000000000
     24044      8015  TIP3      H1             46.7500594280       53.6970075841      -16.1447163352  W2        8015            0.0000000000
     24045      8015  TIP3      H2             45.6373194280       52.8910675841      -16.7804563352  W2        8015            0.0000000000
     24046      8016  TIP3      OH2            52.5929994280       52.8932975841      -13.2874263352  W2        8016            0.0000000000
     24047      8016  TIP3      H1             52.3987094280       52.1455075841      -13.8524663352  W2        8016            0.0000000000
     24048      8016  TIP3      H2             52.5540094280       53.6513075841      -13.8706363352  W2        8016            0.0000000000
     24049      8017  TIP3      OH2            38.2401994280       36.8889375841       -1.5476563352  W2        8017            0.0000000000
     24050      8017  TIP3      H1             37.8740194280       36.1231975841       -1.1051863352  W2        8017            0.0000000000
     24051      8017  TIP3      H2             39.1530494280       36.9179575841       -1.2611463352  W2        8017            0.0000000000
     24052      8018  TIP3      OH2            40.2132794280       36.2393775841       -0.0119463352  W2        8018            0.0000000000
     24053      8018  TIP3      H1             41.1116394280       35.9653975841       -0.1966063352  W2        8018            0.0000000000
     24054      8018  TIP3      H2             39.8265894280       35.4969775841        0.4523136648  W2        8018            0.0000000000
     24055      8019  TIP3      OH2            38.8378094280       53.0408575841      -17.3389463352  W2        8019            0.0000000000
     24056      8019  TIP3      H1             38.5702694280       53.3271475841      -16.4656363352  W2        8019            0.0000000000
     24057      8019  TIP3      H2             39.6090694280       52.4947775841      -17.1866963352  W2        8019            0.0000000000
     24058      8020  TIP3      OH2            48.6345094280       35.5719075841        0.1703336648  W2        8020            0.0000000000
     24059      8020  TIP3      H1             48.7112294280       35.1459775841        1.0241036648  W2        8020            0.0000000000
     24060      8020  TIP3      H2             49.5281694280       35.5853775841       -0.1723163352  W2        8020            0.0000000000
     24061      8021  TIP3      OH2            51.8106194280       51.6445375841       -1.1372463352  W2        8021            0.0000000000
     24062      8021  TIP3      H1             51.0288094280       51.4583375841       -1.6571863352  W2        8021            0.0000000000
     24063      8021  TIP3      H2             51.7386094280       52.5739675841       -0.9199963352  W2        8021            0.0000000000
     24064      8022  TIP3      OH2            57.5182894280       44.4002575841       -6.0947163352  W2        8022            0.0000000000
     24065      8022  TIP3      H1             57.5594994280       43.7745875841       -5.3714763352  W2        8022            0.0000000000
     24066      8022  TIP3      H2             58.2210594280       45.0241175841       -5.9126763352  W2        8022            0.0000000000
     24067      8023  TIP3      OH2            58.4415994280       48.8501475841       -7.5598063352  W2        8023            0.0000000000
     24068      8023  TIP3      H1             58.0721194280       48.0481975841       -7.9293763352  W2        8023            0.0000000000
     24069      8023  TIP3      H2             59.3827094280       48.6816375841       -7.5134663352  W2        8023            0.0000000000
     24070      8024  TIP3      OH2            55.0516494280       42.5104075841      -12.1669263352  W2        8024            0.0000000000
     24071      8024  TIP3      H1             54.6039894280       43.3562775841      -12.1852763352  W2        8024            0.0000000000
     24072      8024  TIP3      H2             54.4907694280       41.9308275841      -12.6824163352  W2        8024            0.0000000000
     24073      8025  TIP3      OH2            55.7622594280       44.6723675841      -10.0411263352  W2        8025            0.0000000000
     24074      8025  TIP3      H1             55.9756094280       43.9025275841       -9.5138263352  W2        8025            0.0000000000
     24075      8025  TIP3      H2             56.5000194280       44.7620375841      -10.6443663352  W2        8025            0.0000000000
     24076      8026  TIP3      OH2            56.4549094280       42.1106475841       -8.9195063352  W2        8026            0.0000000000
     24077      8026  TIP3      H1             57.1085694280       41.5608175841       -8.4874963352  W2        8026            0.0000000000
     24078      8026  TIP3      H2             56.4788394280       41.8365475841       -9.8363063352  W2        8026            0.0000000000
     24079      8027  TIP3      OH2            58.2386794280       40.5240875841       -7.6553463352  W2        8027            0.0000000000
     24080      8027  TIP3      H1             58.8523094280       41.1568475841       -7.2821063352  W2        8027            0.0000000000
     24081      8027  TIP3      H2             58.7507494280       40.0515875841       -8.3116563352  W2        8027            0.0000000000
     24082      8028  TIP3      OH2            55.7426094280       47.9425675841      -13.7511163352  W2        8028            0.0000000000
     24083      8028  TIP3      H1             55.4706994280       48.1716675841      -14.6398263352  W2        8028            0.0000000000
     24084      8028  TIP3      H2             55.7881794280       48.7804475841      -13.2905863352  W2        8028            0.0000000000
     24085      8029  TIP3      OH2            58.1556594280       44.9808675841       -3.2411463352  W2        8029            0.0000000000
     24086      8029  TIP3      H1             58.2259794280       45.6315475841       -2.5426463352  W2        8029            0.0000000000
     24087      8029  TIP3      H2             57.2648794280       45.0836175841       -3.5760563352  W2        8029            0.0000000000
     24088      8030  TIP3      OH2            55.0723294280       47.0472775841       -4.4161463352  W2        8030            0.0000000000
     24089      8030  TIP3      H1             54.5711694280       47.0192175841       -5.2311763352  W2        8030            0.0000000000
     24090      8030  TIP3      H2             55.0776994280       46.1415975841       -4.1064163352  W2        8030            0.0000000000
     24091      8031  TIP3      OH2            54.8225994280       49.8276575841       -7.5321263352  W2        8031            0.0000000000
     24092      8031  TIP3      H1             55.7686594280       49.6833575841       -7.5511763352  W2        8031            0.0000000000
     24093      8031  TIP3      H2             54.7102294280       50.6119375841       -6.9950063352  W2        8031            0.0000000000
     24094      8032  TIP3      OH2            58.0668094280       52.6286175841      -11.3866563352  W2        8032            0.0000000000
     24095      8032  TIP3      H1             58.2188494280       52.2806575841      -10.5080063352  W2        8032            0.0000000000
     24096      8032  TIP3      H2             57.2158494280       52.2723475841      -11.6419363352  W2        8032            0.0000000000
     24097      8033  TIP3      OH2            57.3213794280       48.3708175841       -3.3728663352  W2        8033            0.0000000000
     24098      8033  TIP3      H1             57.5375094280       48.0093775841       -2.5132863352  W2        8033            0.0000000000
     24099      8033  TIP3      H2             56.4658494280       47.9961975841       -3.5825163352  W2        8033            0.0000000000
     24100      8034  TIP3      OH2            57.7812394280       42.1266675841       -4.4152263352  W2        8034            0.0000000000
     24101      8034  TIP3      H1             57.7431794280       42.5268275841       -3.5465163352  W2        8034            0.0000000000
     24102      8034  TIP3      H2             57.2903494280       41.3099075841       -4.3249363352  W2        8034            0.0000000000
     24103      8035  TIP3      OH2            54.3893194280       39.2428475841      -10.5647563352  W2        8035            0.0000000000
     24104      8035  TIP3      H1             55.0200894280       39.2140575841       -9.8453663352  W2        8035            0.0000000000
     24105      8035  TIP3      H2             54.8387494280       38.8177175841      -11.2951663352  W2        8035            0.0000000000
     24106      8036  TIP3      OH2            55.6635294280       39.9890475841      -15.1407163352  W2        8036            0.0000000000
     24107      8036  TIP3      H1             56.1376994280       40.5800375841      -15.7256263352  W2        8036            0.0000000000
     24108      8036  TIP3      H2             54.9461694280       40.5193375841      -14.7937063352  W2        8036            0.0000000000
     24109      8037  TIP3      OH2            57.4379694280       41.0837075841      -11.4572563352  W2        8037            0.0000000000
     24110      8037  TIP3      H1             56.5487694280       41.1832575841      -11.7972963352  W2        8037            0.0000000000
     24111      8037  TIP3      H2             57.7344594280       40.2420075841      -11.8034663352  W2        8037            0.0000000000
     24112      8038  TIP3      OH2            57.9003094280       46.8353775841       -1.1350263352  W2        8038            0.0000000000
     24113      8038  TIP3      H1             58.6325494280       47.0899675841       -0.5735763352  W2        8038            0.0000000000
     24114      8038  TIP3      H2             57.1201794280       47.0399175841       -0.6194863352  W2        8038            0.0000000000
     24115      8039  TIP3      OH2            58.2252794280       46.1387575841       -8.5285863352  W2        8039            0.0000000000
     24116      8039  TIP3      H1             58.9699994280       46.1363275841       -9.1299363352  W2        8039            0.0000000000
     24117      8039  TIP3      H2             58.3029394280       45.3151375841       -8.0470763352  W2        8039            0.0000000000
     24118      8040  TIP3      OH2            55.2332494280       44.5994475841       -3.2137363352  W2        8040            0.0000000000
     24119      8040  TIP3      H1             55.4561094280       44.1814075841       -2.3819863352  W2        8040            0.0000000000
     24120      8040  TIP3      H2             54.6312594280       43.9869475841       -3.6364563352  W2        8040            0.0000000000
     24121      8041  TIP3      OH2            56.3549894280       44.5189875841      -16.5371963352  W2        8041            0.0000000000
     24122      8041  TIP3      H1             56.9709794280       45.1457075841      -16.1577163352  W2        8041            0.0000000000
     24123      8041  TIP3      H2             55.4932494280       44.8349675841      -16.2655463352  W2        8041            0.0000000000
     24124      8042  TIP3      OH2            56.8671994280       39.3527175841       -3.6555963352  W2        8042            0.0000000000
     24125      8042  TIP3      H1             55.9744294280       39.6912575841       -3.7231963352  W2        8042            0.0000000000
     24126      8042  TIP3      H2             56.7684794280       38.4973275841       -3.2375163352  W2        8042            0.0000000000
     24127      8043  TIP3      OH2            56.5183994280       51.1571575841       -5.2206563352  W2        8043            0.0000000000
     24128      8043  TIP3      H1             56.7354294280       50.2253975841       -5.2516863352  W2        8043            0.0000000000
     24129      8043  TIP3      H2             56.7647494280       51.4316575841       -4.3373763352  W2        8043            0.0000000000
     24130      8044  TIP3      OH2            57.7700294280       46.4313675841      -15.0446363352  W2        8044            0.0000000000
     24131      8044  TIP3      H1             57.0839594280       46.7836175841      -14.4776663352  W2        8044            0.0000000000
     24132      8044  TIP3      H2             58.2928194280       47.1943275841      -15.2912063352  W2        8044            0.0000000000
     24133      8045  TIP3      OH2            58.3859194280       49.0452575841      -16.1478563352  W2        8045            0.0000000000
     24134      8045  TIP3      H1             58.9780694280       49.7447375841      -15.8716163352  W2        8045            0.0000000000
     24135      8045  TIP3      H2             58.8452194280       48.6122075841      -16.8673963352  W2        8045            0.0000000000
     24136      8046  TIP3      OH2            56.7018394280       41.7095575841      -17.0319163352  W2        8046            0.0000000000
     24137      8046  TIP3      H1             56.6570994280       42.6488675841      -16.8532163352  W2        8046            0.0000000000
     24138      8046  TIP3      H2             55.8141594280       41.4740475841      -17.3017063352  W2        8046            0.0000000000
     24139      8047  TIP3      OH2            57.5100394280       36.4912175841       -8.3588163352  W2        8047            0.0000000000
     24140      8047  TIP3      H1             57.2810194280       36.5504675841       -9.2863163352  W2        8047            0.0000000000
     24141      8047  TIP3      H2             57.0673794280       35.6997675841       -8.0524063352  W2        8047            0.0000000000
     24142      8048  TIP3      OH2            56.4403694280       50.4319275841      -12.1982363352  W2        8048            0.0000000000
     24143      8048  TIP3      H1             55.6082294280       50.9041975841      -12.1710963352  W2        8048            0.0000000000
     24144      8048  TIP3      H2             56.9861994280       50.9416875841      -12.7969263352  W2        8048            0.0000000000
     24145      8049  TIP3      OH2            55.7287394280       53.0442975841       -0.8684363352  W2        8049            0.0000000000
     24146      8049  TIP3      H1             56.2689594280       52.8276975841       -0.1085163352  W2        8049            0.0000000000
     24147      8049  TIP3      H2             55.2475394280       52.2388975841       -1.0581863352  W2        8049            0.0000000000
     24148      8050  TIP3      OH2            55.6356894280       46.8547075841        0.0859936648  W2        8050            0.0000000000
     24149      8050  TIP3      H1             55.7797394280       45.9527775841       -0.2003363352  W2        8050            0.0000000000
     24150      8050  TIP3      H2             54.8634294280       47.1409175841       -0.4017763352  W2        8050            0.0000000000
     24151      8051  TIP3      OH2            56.4683394280       44.0550375841       -0.4940763352  W2        8051            0.0000000000
     24152      8051  TIP3      H1             56.8764594280       43.1976975841       -0.6150163352  W2        8051            0.0000000000
     24153      8051  TIP3      H2             56.2080994280       44.0691675841        0.4269536648  W2        8051            0.0000000000
     24154      8052  TIP3      OH2            57.4136494280       39.5374175841       -0.4214463352  W2        8052            0.0000000000
     24155      8052  TIP3      H1             57.6253894280       38.8310275841       -1.0316963352  W2        8052            0.0000000000
     24156      8052  TIP3      H2             57.3023994280       39.1000175841        0.4226736648  W2        8052            0.0000000000
     24157      8053  TIP3      OH2            55.6631394280       48.7408275841      -16.7292563352  W2        8053            0.0000000000
     24158      8053  TIP3      H1             56.5770594280       48.8197175841      -16.4558663352  W2        8053            0.0000000000
     24159      8053  TIP3      H2             55.6704494280       48.0537875841      -17.3956963352  W2        8053            0.0000000000
     24160      8054  TIP3      OH2            54.3121994280       54.1336775841      -11.6518663352  W2        8054            0.0000000000
     24161      8054  TIP3      H1             53.6649094280       53.6718475841      -12.1847463352  W2        8054            0.0000000000
     24162      8054  TIP3      H2             54.6666594280       53.4620075841      -11.0692463352  W2        8054            0.0000000000
     24163      8055  TIP3      OH2            55.1821194280       52.2143775841       -9.8472463352  W2        8055            0.0000000000
     24164      8055  TIP3      H1             54.8477994280       51.3341075841       -9.6752263352  W2        8055            0.0000000000
     24165      8055  TIP3      H2             55.4043594280       52.5598775841       -8.9826863352  W2        8055            0.0000000000
     24166      8056  TIP3      OH2            55.2620694280       45.2899175841       -7.3957563352  W2        8056            0.0000000000
     24167      8056  TIP3      H1             55.4463594280       45.2080875841       -8.3314663352  W2        8056            0.0000000000
     24168      8056  TIP3      H2             56.1113594280       45.1656175841       -6.9721163352  W2        8056            0.0000000000
     24169      8057  TIP3      OH2            54.8595494280       40.5604175841       -1.2548763352  W2        8057            0.0000000000
     24170      8057  TIP3      H1             55.7790394280       40.4382475841       -1.0185663352  W2        8057            0.0000000000
     24171      8057  TIP3      H2             54.4099994280       39.8103875841       -0.8655263352  W2        8057            0.0000000000
     24172      8058  TIP3      OH2            56.0807994280       38.8725775841       -8.3635863352  W2        8058            0.0000000000
     24173      8058  TIP3      H1             56.5259594280       38.0808275841       -8.0616163352  W2        8058            0.0000000000
     24174      8058  TIP3      H2             56.5470994280       39.5890975841       -7.9330263352  W2        8058            0.0000000000
     24175      8059  TIP3      OH2            54.3848294280       41.8718775841       -7.2945663352  W2        8059            0.0000000000
     24176      8059  TIP3      H1             54.8768094280       41.6509275841       -8.0853663352  W2        8059            0.0000000000
     24177      8059  TIP3      H2             54.7469194280       42.7122175841       -7.0136163352  W2        8059            0.0000000000
     24178      8060  TIP3      OH2            54.6984794280       38.1297875841      -13.2403263352  W2        8060            0.0000000000
     24179      8060  TIP3      H1             53.7733194280       38.3384475841      -13.3697763352  W2        8060            0.0000000000
     24180      8060  TIP3      H2             55.1524694280       38.6138675841      -13.9300963352  W2        8060            0.0000000000
     24181      8061  TIP3      OH2            54.6620194280       36.8676875841       -4.8960763352  W2        8061            0.0000000000
     24182      8061  TIP3      H1             53.9970694280       36.6217175841       -4.2529863352  W2        8061            0.0000000000
     24183      8061  TIP3      H2             54.2191494280       37.4897275841       -5.4732763352  W2        8061            0.0000000000
     24184      8062  TIP3      OH2            56.8539494280       50.0430975841       -0.7514963352  W2        8062            0.0000000000
     24185      8062  TIP3      H1             56.0331994280       50.2177475841       -1.2120263352  W2        8062            0.0000000000
     24186      8062  TIP3      H2             56.6017294280       49.9695675841        0.1689436648  W2        8062            0.0000000000
     24187      8063  TIP3      OH2            57.2099094280       54.2736075841       -4.4455663352  W2        8063            0.0000000000
     24188      8063  TIP3      H1             56.4895494280       54.7137075841       -4.8967963352  W2        8063            0.0000000000
     24189      8063  TIP3      H2             56.8443094280       54.0230775841       -3.5971663352  W2        8063            0.0000000000
     24190      8064  TIP3      OH2            56.6247194280       52.8968575841       -7.5353863352  W2        8064            0.0000000000
     24191      8064  TIP3      H1             56.6063194280       52.4713675841       -6.6781563352  W2        8064            0.0000000000
     24192      8064  TIP3      H2             57.4295094280       52.5783575841       -7.9441663352  W2        8064            0.0000000000
     24193      8065  TIP3      OH2            57.1383994280       36.3747475841      -11.0652763352  W2        8065            0.0000000000
     24194      8065  TIP3      H1             56.3613794280       36.1402375841      -11.5726863352  W2        8065            0.0000000000
     24195      8065  TIP3      H2             57.6687594280       35.5779575841      -11.0564763352  W2        8065            0.0000000000
     24196      8066  TIP3      OH2            55.9747394280       36.1725575841      -15.2616663352  W2        8066            0.0000000000
     24197      8066  TIP3      H1             56.4138094280       36.7836075841      -15.8533163352  W2        8066            0.0000000000
     24198      8066  TIP3      H2             55.3409794280       36.7109675841      -14.7876663352  W2        8066            0.0000000000
     24199      8067  TIP3      OH2            55.8756894280       52.1207775841      -14.3641563352  W2        8067            0.0000000000
     24200      8067  TIP3      H1             55.1906794280       52.0826675841      -15.0316463352  W2        8067            0.0000000000
     24201      8067  TIP3      H2             55.8794094280       53.0335375841      -14.0759463352  W2        8067            0.0000000000
     24202      8068  TIP3      OH2            57.8356494280       38.0887075841      -16.8192563352  W2        8068            0.0000000000
     24203      8068  TIP3      H1             58.3269894280       37.4589475841      -17.3467063352  W2        8068            0.0000000000
     24204      8068  TIP3      H2             58.4592794280       38.3846475841      -16.1561363352  W2        8068            0.0000000000
     24205      8069  TIP3      OH2            57.0961994280       36.8889375841       -1.5476563352  W2        8069            0.0000000000
     24206      8069  TIP3      H1             56.7300194280       36.1231975841       -1.1051863352  W2        8069            0.0000000000
     24207      8069  TIP3      H2             58.0090494280       36.9179575841       -1.2611463352  W2        8069            0.0000000000
     24208      8070  TIP3      OH2            57.6938094280       53.0408575841      -17.3389463352  W2        8070            0.0000000000
     24209      8070  TIP3      H1             57.4262694280       53.3271475841      -16.4656363352  W2        8070            0.0000000000
     24210      8070  TIP3      H2             58.4650694280       52.4947775841      -17.1866963352  W2        8070            0.0000000000
     24211      8071  TIP3      OH2           -40.9337905720       57.6757175841       -6.4209863352  W2        8071            0.0000000000
     24212      8071  TIP3      H1            -40.8845705720       58.2858375841       -5.6850763352  W2        8071            0.0000000000
     24213      8071  TIP3      H2            -40.5082805720       58.1368075841       -7.1438763352  W2        8071            0.0000000000
     24214      8072  TIP3      OH2           -53.3012405720       58.5700675841       -9.6816463352  W2        8072            0.0000000000
     24215      8072  TIP3      H1            -53.2581305720       59.4299175841      -10.1000163352  W2        8072            0.0000000000
     24216      8072  TIP3      H2            -53.7588305720       58.0175375841      -10.3153263352  W2        8072            0.0000000000
     24217      8073  TIP3      OH2           -54.4910505720       57.4879075841       -5.6075663352  W2        8073            0.0000000000
     24218      8073  TIP3      H1            -54.7098805720       58.0179675841       -6.3739663352  W2        8073            0.0000000000
     24219      8073  TIP3      H2            -55.1589605720       57.7144575841       -4.9604263352  W2        8073            0.0000000000
     24220      8074  TIP3      OH2           -43.8151305720       57.9915575841       -9.3002263352  W2        8074            0.0000000000
     24221      8074  TIP3      H1            -44.0303305720       57.2258975841       -8.7676263352  W2        8074            0.0000000000
     24222      8074  TIP3      H2            -43.1593905720       58.4640175841       -8.7873763352  W2        8074            0.0000000000
     24223      8075  TIP3      OH2           -43.4677205720       56.7066875841       -5.6208763352  W2        8075            0.0000000000
     24224      8075  TIP3      H1            -44.2038005720       57.3173975841       -5.6587463352  W2        8075            0.0000000000
     24225      8075  TIP3      H2            -42.7843205720       57.1215875841       -6.1472363352  W2        8075            0.0000000000
     24226      8076  TIP3      OH2           -50.4645805720       54.7934175841       -8.1550763352  W2        8076            0.0000000000
     24227      8076  TIP3      H1            -50.5821605720       53.8450175841       -8.2092463352  W2        8076            0.0000000000
     24228      8076  TIP3      H2            -51.3195705720       55.1260275841       -7.8819663352  W2        8076            0.0000000000
     24229      8077  TIP3      OH2           -42.2225305720       54.7526375841      -15.2048163352  W2        8077            0.0000000000
     24230      8077  TIP3      H1            -43.1224605720       54.8915375841      -14.9097563352  W2        8077            0.0000000000
     24231      8077  TIP3      H2            -41.9706905720       55.5840975841      -15.6066463352  W2        8077            0.0000000000
     24232      8078  TIP3      OH2           -53.1958205720       55.6968675841       -7.3774463352  W2        8078            0.0000000000
     24233      8078  TIP3      H1            -54.0574505720       55.6096875841       -7.7851563352  W2        8078            0.0000000000
     24234      8078  TIP3      H2            -53.2182505720       56.5528775841       -6.9496863352  W2        8078            0.0000000000
     24235      8079  TIP3      OH2           -48.5330405720       55.4189075841       -4.0027463352  W2        8079            0.0000000000
     24236      8079  TIP3      H1            -48.1127305720       55.0036175841       -3.2496863352  W2        8079            0.0000000000
     24237      8079  TIP3      H2            -49.4660805720       55.2402375841       -3.8855463352  W2        8079            0.0000000000
     24238      8080  TIP3      OH2           -48.8713105720       57.9112475841      -16.7176663352  W2        8080            0.0000000000
     24239      8080  TIP3      H1            -49.1248305720       57.9304075841      -15.7948563352  W2        8080            0.0000000000
     24240      8080  TIP3      H2            -49.1281005720       57.0397875841      -17.0190463352  W2        8080            0.0000000000
     24241      8081  TIP3      OH2           -51.9890205720       58.3568975841      -17.6166263352  W2        8081            0.0000000000
     24242      8081  TIP3      H1            -52.4199505720       57.9119075841      -16.8868863352  W2        8081            0.0000000000
     24243      8081  TIP3      H2            -52.7071505720       58.7285275841      -18.1288763352  W2        8081            0.0000000000
     24244      8082  TIP3      OH2           -58.7466805720       58.0988475841      -10.5647563352  W2        8082            0.0000000000
     24245      8082  TIP3      H1            -58.1159105720       58.0700575841       -9.8453663352  W2        8082            0.0000000000
     24246      8082  TIP3      H2            -58.2972505720       57.6737175841      -11.2951663352  W2        8082            0.0000000000
     24247      8083  TIP3      OH2           -50.5263705720       58.3110775841      -10.2840163352  W2        8083            0.0000000000
     24248      8083  TIP3      H1            -51.4372605720       58.3677575841       -9.9954163352  W2        8083            0.0000000000
     24249      8083  TIP3      H2            -50.0210805720       58.2506275841       -9.4732963352  W2        8083            0.0000000000
     24250      8084  TIP3      OH2           -46.1211805720       57.5457075841       -7.0198363352  W2        8084            0.0000000000
     24251      8084  TIP3      H1            -46.7980205720       57.6770175841       -6.3558663352  W2        8084            0.0000000000
     24252      8084  TIP3      H2            -46.6066905720       57.3906575841       -7.8300663352  W2        8084            0.0000000000
     24253      8085  TIP3      OH2           -54.2044305720       57.2349875841      -11.9785763352  W2        8085            0.0000000000
     24254      8085  TIP3      H1            -54.5214805720       56.3325175841      -12.0140363352  W2        8085            0.0000000000
     24255      8085  TIP3      H2            -53.4230205720       57.2367275841      -12.5314163352  W2        8085            0.0000000000
     24256      8086  TIP3      OH2           -46.1378705720       58.5137475841      -16.0991163352  W2        8086            0.0000000000
     24257      8086  TIP3      H1            -47.0764505720       58.6253075841      -16.2502363352  W2        8086            0.0000000000
     24258      8086  TIP3      H2            -45.8406605720       59.3704375841      -15.7925463352  W2        8086            0.0000000000
     24259      8087  TIP3      OH2           -56.2688005720       58.2087175841       -3.6555963352  W2        8087            0.0000000000
     24260      8087  TIP3      H1            -57.1615705720       58.5472575841       -3.7231963352  W2        8087            0.0000000000
     24261      8087  TIP3      H2            -56.3675205720       57.3533275841       -3.2375163352  W2        8087            0.0000000000
     24262      8088  TIP3      OH2           -47.5344605720       57.9497475841       -4.7657363352  W2        8088            0.0000000000
     24263      8088  TIP3      H1            -46.8356705720       58.0236175841       -4.1157663352  W2        8088            0.0000000000
     24264      8088  TIP3      H2            -47.9153205720       57.0852475841       -4.6114463352  W2        8088            0.0000000000
     24265      8089  TIP3      OH2           -46.7499705720       57.6019175841      -13.6685063352  W2        8089            0.0000000000
     24266      8089  TIP3      H1            -46.5301405720       58.0734575841      -14.4719663352  W2        8089            0.0000000000
     24267      8089  TIP3      H2            -46.1915705720       57.9961775841      -12.9984463352  W2        8089            0.0000000000
     24268      8090  TIP3      OH2           -48.6663105720       56.4110975841      -11.8955563352  W2        8090            0.0000000000
     24269      8090  TIP3      H1            -49.0129605720       57.0281575841      -11.2511263352  W2        8090            0.0000000000
     24270      8090  TIP3      H2            -48.0076205720       56.9116675841      -12.3770063352  W2        8090            0.0000000000
     24271      8091  TIP3      OH2           -53.0086105720       57.4740375841      -15.2083063352  W2        8091            0.0000000000
     24272      8091  TIP3      H1            -53.0921305720       58.3623475841      -14.8616663352  W2        8091            0.0000000000
     24273      8091  TIP3      H2            -52.1185805720       57.2087075841      -14.9766263352  W2        8091            0.0000000000
     24274      8092  TIP3      OH2           -42.8097605720       58.2230975841       -2.8140363352  W2        8092            0.0000000000
     24275      8092  TIP3      H1            -43.7261805720       58.4852675841       -2.9016663352  W2        8092            0.0000000000
     24276      8092  TIP3      H2            -42.4742605720       58.2199975841       -3.7105063352  W2        8092            0.0000000000
     24277      8093  TIP3      OH2           -55.6259605720       55.3472175841       -8.3588163352  W2        8093            0.0000000000
     24278      8093  TIP3      H1            -55.8549805720       55.4064675841       -9.2863163352  W2        8093            0.0000000000
     24279      8093  TIP3      H2            -56.0686205720       54.5557675841       -8.0524063352  W2        8093            0.0000000000
     24280      8094  TIP3      OH2           -51.9686905720       57.6442675841       -4.5447363352  W2        8094            0.0000000000
     24281      8094  TIP3      H1            -51.4329405720       58.0959375841       -5.1968063352  W2        8094            0.0000000000
     24282      8094  TIP3      H2            -52.8207305720       57.5362475841       -4.9673263352  W2        8094            0.0000000000
     24283      8095  TIP3      OH2           -51.1631405720       55.1008375841       -4.1133763352  W2        8095            0.0000000000
     24284      8095  TIP3      H1            -51.2611805720       56.0471575841       -4.2187563352  W2        8095            0.0000000000
     24285      8095  TIP3      H2            -51.9055205720       54.7282175841       -4.5890263352  W2        8095            0.0000000000
     24286      8096  TIP3      OH2           -47.1834305720       58.5497275841       -1.4741863352  W2        8096            0.0000000000
     24287      8096  TIP3      H1            -48.1308905720       58.5816975841       -1.3418563352  W2        8096            0.0000000000
     24288      8096  TIP3      H2            -46.8707605720       57.9244375841       -0.8203663352  W2        8096            0.0000000000
     24289      8097  TIP3      OH2           -45.5492805720       57.1838375841        0.5310036648  W2        8097            0.0000000000
     24290      8097  TIP3      H1            -45.6461005720       56.2315675841        0.5251936648  W2        8097            0.0000000000
     24291      8097  TIP3      H2            -45.8709705720       57.4525175841        1.3915536648  W2        8097            0.0000000000
     24292      8098  TIP3      OH2           -55.7223505720       58.3934175841       -0.4214463352  W2        8098            0.0000000000
     24293      8098  TIP3      H1            -55.5106105720       57.6870275841       -1.0316963352  W2        8098            0.0000000000
     24294      8098  TIP3      H2            -55.8336005720       57.9560175841        0.4226736648  W2        8098            0.0000000000
     24295      8099  TIP3      OH2           -50.9413305720       54.3945775841       -1.4420963352  W2        8099            0.0000000000
     24296      8099  TIP3      H1            -50.2294905720       53.7547975841       -1.4561863352  W2        8099            0.0000000000
     24297      8099  TIP3      H2            -51.0422905720       54.6614075841       -2.3557863352  W2        8099            0.0000000000
     24298      8100  TIP3      OH2           -50.5875805720       56.0774175841        0.6115336648  W2        8100            0.0000000000
     24299      8100  TIP3      H1            -50.7193605720       55.6017975841       -0.2086163352  W2        8100            0.0000000000
     24300      8100  TIP3      H2            -51.1868405720       56.8217775841        0.5562436648  W2        8100            0.0000000000
     24301      8101  TIP3      OH2           -42.8312605720       58.0954375841      -17.9096163352  W2        8101            0.0000000000
     24302      8101  TIP3      H1            -42.2206805720       57.7241175841      -17.2727963352  W2        8101            0.0000000000
     24303      8101  TIP3      H2            -43.6681105720       57.6741275841      -17.7136163352  W2        8101            0.0000000000
     24304      8102  TIP3      OH2           -40.2745105720       54.9485675841        0.6217036648  W2        8102            0.0000000000
     24305      8102  TIP3      H1            -39.9248105720       54.2949175841        0.0161736648  W2        8102            0.0000000000
     24306      8102  TIP3      H2            -40.1275605720       55.7859775841        0.1819636648  W2        8102            0.0000000000
     24307      8103  TIP3      OH2           -42.5852105720       56.9132075841      -12.8954263352  W2        8103            0.0000000000
     24308      8103  TIP3      H1            -42.4027105720       56.4643575841      -12.0699263352  W2        8103            0.0000000000
     24309      8103  TIP3      H2            -43.1849205720       56.3286475841      -13.3589663352  W2        8103            0.0000000000
     24310      8104  TIP3      OH2           -57.0552005720       57.7285775841       -8.3635863352  W2        8104            0.0000000000
     24311      8104  TIP3      H1            -56.6100405720       56.9368275841       -8.0616163352  W2        8104            0.0000000000
     24312      8104  TIP3      H2            -56.5889005720       58.4450975841       -7.9330263352  W2        8104            0.0000000000
     24313      8105  TIP3      OH2           -40.7547905720       57.0580275841       -1.0291663352  W2        8105            0.0000000000
     24314      8105  TIP3      H1            -41.6722205720       57.3287375841       -1.0648163352  W2        8105            0.0000000000
     24315      8105  TIP3      H2            -40.6318505720       56.5228675841       -1.8131963352  W2        8105            0.0000000000
     24316      8106  TIP3      OH2           -40.7185905720       56.9810175841      -16.3673963352  W2        8106            0.0000000000
     24317      8106  TIP3      H1            -40.3063305720       56.2595875841      -16.8425963352  W2        8106            0.0000000000
     24318      8106  TIP3      H2            -40.0369405720       57.6504775841      -16.3089663352  W2        8106            0.0000000000
     24319      8107  TIP3      OH2           -58.4375205720       56.9857875841      -13.2403263352  W2        8107            0.0000000000
     24320      8107  TIP3      H1            -59.3626805720       57.1944475841      -13.3697763352  W2        8107            0.0000000000
     24321      8107  TIP3      H2            -57.9835305720       57.4698675841      -13.9300963352  W2        8107            0.0000000000
     24322      8108  TIP3      OH2           -58.4739805720       55.7236875841       -4.8960763352  W2        8108            0.0000000000
     24323      8108  TIP3      H1            -59.1389305720       55.4777175841       -4.2529863352  W2        8108            0.0000000000
     24324      8108  TIP3      H2            -58.9168505720       56.3457275841       -5.4732763352  W2        8108            0.0000000000
     24325      8109  TIP3      OH2           -41.7542005720       55.1476575841       -3.2100863352  W2        8109            0.0000000000
     24326      8109  TIP3      H1            -42.5668505720       55.4726875841       -3.5976163352  W2        8109            0.0000000000
     24327      8109  TIP3      H2            -41.5213505720       54.3875075841       -3.7431763352  W2        8109            0.0000000000
     24328      8110  TIP3      OH2           -48.3243505720       56.5967175841       -8.8872663352  W2        8110            0.0000000000
     24329      8110  TIP3      H1            -48.9986705720       55.9672775841       -8.6316863352  W2        8110            0.0000000000
     24330      8110  TIP3      H2            -47.7604305720       56.1126075841       -9.4904763352  W2        8110            0.0000000000
     24331      8111  TIP3      OH2           -43.1816305720       54.7041175841       -8.7745563352  W2        8111            0.0000000000
     24332      8111  TIP3      H1            -42.5778705720       55.2516575841       -9.2764563352  W2        8111            0.0000000000
     24333      8111  TIP3      H2            -44.0514305720       55.0231575841       -9.0151463352  W2        8111            0.0000000000
     24334      8112  TIP3      OH2           -41.4545905720       55.8429875841      -10.4414663352  W2        8112            0.0000000000
     24335      8112  TIP3      H1            -40.8428405720       55.3285575841      -10.9681063352  W2        8112            0.0000000000
     24336      8112  TIP3      H2            -41.0722505720       56.7201975841      -10.4180263352  W2        8112            0.0000000000
     24337      8113  TIP3      OH2           -55.9976005720       55.2307475841      -11.0652763352  W2        8113            0.0000000000
     24338      8113  TIP3      H1            -56.7746205720       54.9962375841      -11.5726863352  W2        8113            0.0000000000
     24339      8113  TIP3      H2            -55.4672405720       54.4339575841      -11.0564763352  W2        8113            0.0000000000
     24340      8114  TIP3      OH2           -57.1612605720       55.0285575841      -15.2616663352  W2        8114            0.0000000000
     24341      8114  TIP3      H1            -56.7221905720       55.6396075841      -15.8533163352  W2        8114            0.0000000000
     24342      8114  TIP3      H2            -57.7950205720       55.5669675841      -14.7876663352  W2        8114            0.0000000000
     24343      8115  TIP3      OH2           -51.4183405720       55.1574575841      -11.2519663352  W2        8115            0.0000000000
     24344      8115  TIP3      H1            -50.5440005720       55.5458875841      -11.2815363352  W2        8115            0.0000000000
     24345      8115  TIP3      H2            -51.5542605720       54.9422375841      -10.3292463352  W2        8115            0.0000000000
     24346      8116  TIP3      OH2           -45.8615005720       55.1874375841       -9.6027963352  W2        8116            0.0000000000
     24347      8116  TIP3      H1            -45.7853405720       55.2825975841      -10.5521963352  W2        8116            0.0000000000
     24348      8116  TIP3      H2            -46.1365805720       54.2797275841       -9.4738863352  W2        8116            0.0000000000
     24349      8117  TIP3      OH2           -44.5082405720       55.2132175841      -13.9102963352  W2        8117            0.0000000000
     24350      8117  TIP3      H1            -45.2111305720       55.8281375841      -14.1201563352  W2        8117            0.0000000000
     24351      8117  TIP3      H2            -44.9531005720       54.3758875841      -13.7792063352  W2        8117            0.0000000000
     24352      8118  TIP3      OH2           -55.3003505720       56.9447075841      -16.8192563352  W2        8118            0.0000000000
     24353      8118  TIP3      H1            -54.8090105720       56.3149475841      -17.3467063352  W2        8118            0.0000000000
     24354      8118  TIP3      H2            -54.6767205720       57.2406475841      -16.1561363352  W2        8118            0.0000000000
     24355      8119  TIP3      OH2           -50.2743405720       57.2378575841      -14.3622063352  W2        8119            0.0000000000
     24356      8119  TIP3      H1            -50.0962105720       56.5911775841      -13.6793463352  W2        8119            0.0000000000
     24357      8119  TIP3      H2            -50.3277205720       58.0716275841      -13.8950963352  W2        8119            0.0000000000
     24358      8120  TIP3      OH2           -56.0398005720       55.7449375841       -1.5476563352  W2        8120            0.0000000000
     24359      8120  TIP3      H1            -56.4059805720       54.9791975841       -1.1051863352  W2        8120            0.0000000000
     24360      8120  TIP3      H2            -55.1269505720       55.7739575841       -1.2611463352  W2        8120            0.0000000000
     24361      8121  TIP3      OH2           -54.0667205720       55.0953775841       -0.0119463352  W2        8121            0.0000000000
     24362      8121  TIP3      H1            -53.1683605720       54.8213975841       -0.1966063352  W2        8121            0.0000000000
     24363      8121  TIP3      H2            -54.4534105720       54.3529775841        0.4523136648  W2        8121            0.0000000000
     24364      8122  TIP3      OH2           -45.6454905720       54.4279075841        0.1703336648  W2        8122            0.0000000000
     24365      8122  TIP3      H1            -45.5687705720       54.0019775841        1.0241036648  W2        8122            0.0000000000
     24366      8122  TIP3      H2            -44.7518305720       54.4413775841       -0.1723163352  W2        8122            0.0000000000
     24367      8123  TIP3      OH2           -22.0777905720       57.6757175841       -6.4209863352  W2        8123            0.0000000000
     24368      8123  TIP3      H1            -22.0285705720       58.2858375841       -5.6850763352  W2        8123            0.0000000000
     24369      8123  TIP3      H2            -21.6522805720       58.1368075841       -7.1438763352  W2        8123            0.0000000000
     24370      8124  TIP3      OH2           -34.4452405720       58.5700675841       -9.6816463352  W2        8124            0.0000000000
     24371      8124  TIP3      H1            -34.4021305720       59.4299175841      -10.1000163352  W2        8124            0.0000000000
     24372      8124  TIP3      H2            -34.9028305720       58.0175375841      -10.3153263352  W2        8124            0.0000000000
     24373      8125  TIP3      OH2           -35.6350505720       57.4879075841       -5.6075663352  W2        8125            0.0000000000
     24374      8125  TIP3      H1            -35.8538805720       58.0179675841       -6.3739663352  W2        8125            0.0000000000
     24375      8125  TIP3      H2            -36.3029605720       57.7144575841       -4.9604263352  W2        8125            0.0000000000
     24376      8126  TIP3      OH2           -24.9591305720       57.9915575841       -9.3002263352  W2        8126            0.0000000000
     24377      8126  TIP3      H1            -25.1743305720       57.2258975841       -8.7676263352  W2        8126            0.0000000000
     24378      8126  TIP3      H2            -24.3033905720       58.4640175841       -8.7873763352  W2        8126            0.0000000000
     24379      8127  TIP3      OH2           -24.6117205720       56.7066875841       -5.6208763352  W2        8127            0.0000000000
     24380      8127  TIP3      H1            -25.3478005720       57.3173975841       -5.6587463352  W2        8127            0.0000000000
     24381      8127  TIP3      H2            -23.9283205720       57.1215875841       -6.1472363352  W2        8127            0.0000000000
     24382      8128  TIP3      OH2           -31.6085805720       54.7934175841       -8.1550763352  W2        8128            0.0000000000
     24383      8128  TIP3      H1            -31.7261605720       53.8450175841       -8.2092463352  W2        8128            0.0000000000
     24384      8128  TIP3      H2            -32.4635705720       55.1260275841       -7.8819663352  W2        8128            0.0000000000
     24385      8129  TIP3      OH2           -23.3665305720       54.7526375841      -15.2048163352  W2        8129            0.0000000000
     24386      8129  TIP3      H1            -24.2664605720       54.8915375841      -14.9097563352  W2        8129            0.0000000000
     24387      8129  TIP3      H2            -23.1146905720       55.5840975841      -15.6066463352  W2        8129            0.0000000000
     24388      8130  TIP3      OH2           -34.3398205720       55.6968675841       -7.3774463352  W2        8130            0.0000000000
     24389      8130  TIP3      H1            -35.2014505720       55.6096875841       -7.7851563352  W2        8130            0.0000000000
     24390      8130  TIP3      H2            -34.3622505720       56.5528775841       -6.9496863352  W2        8130            0.0000000000
     24391      8131  TIP3      OH2           -29.6770405720       55.4189075841       -4.0027463352  W2        8131            0.0000000000
     24392      8131  TIP3      H1            -29.2567305720       55.0036175841       -3.2496863352  W2        8131            0.0000000000
     24393      8131  TIP3      H2            -30.6100805720       55.2402375841       -3.8855463352  W2        8131            0.0000000000
     24394      8132  TIP3      OH2           -30.0153105720       57.9112475841      -16.7176663352  W2        8132            0.0000000000
     24395      8132  TIP3      H1            -30.2688305720       57.9304075841      -15.7948563352  W2        8132            0.0000000000
     24396      8132  TIP3      H2            -30.2721005720       57.0397875841      -17.0190463352  W2        8132            0.0000000000
     24397      8133  TIP3      OH2           -33.1330205720       58.3568975841      -17.6166263352  W2        8133            0.0000000000
     24398      8133  TIP3      H1            -33.5639505720       57.9119075841      -16.8868863352  W2        8133            0.0000000000
     24399      8133  TIP3      H2            -33.8511505720       58.7285275841      -18.1288763352  W2        8133            0.0000000000
     24400      8134  TIP3      OH2           -39.8906805720       58.0988475841      -10.5647563352  W2        8134            0.0000000000
     24401      8134  TIP3      H1            -39.2599105720       58.0700575841       -9.8453663352  W2        8134            0.0000000000
     24402      8134  TIP3      H2            -39.4412505720       57.6737175841      -11.2951663352  W2        8134            0.0000000000
     24403      8135  TIP3      OH2           -31.6703705720       58.3110775841      -10.2840163352  W2        8135            0.0000000000
     24404      8135  TIP3      H1            -32.5812605720       58.3677575841       -9.9954163352  W2        8135            0.0000000000
     24405      8135  TIP3      H2            -31.1650805720       58.2506275841       -9.4732963352  W2        8135            0.0000000000
     24406      8136  TIP3      OH2           -27.2651805720       57.5457075841       -7.0198363352  W2        8136            0.0000000000
     24407      8136  TIP3      H1            -27.9420205720       57.6770175841       -6.3558663352  W2        8136            0.0000000000
     24408      8136  TIP3      H2            -27.7506905720       57.3906575841       -7.8300663352  W2        8136            0.0000000000
     24409      8137  TIP3      OH2           -35.3484305720       57.2349875841      -11.9785763352  W2        8137            0.0000000000
     24410      8137  TIP3      H1            -35.6654805720       56.3325175841      -12.0140363352  W2        8137            0.0000000000
     24411      8137  TIP3      H2            -34.5670205720       57.2367275841      -12.5314163352  W2        8137            0.0000000000
     24412      8138  TIP3      OH2           -27.2818705720       58.5137475841      -16.0991163352  W2        8138            0.0000000000
     24413      8138  TIP3      H1            -28.2204505720       58.6253075841      -16.2502363352  W2        8138            0.0000000000
     24414      8138  TIP3      H2            -26.9846605720       59.3704375841      -15.7925463352  W2        8138            0.0000000000
     24415      8139  TIP3      OH2           -37.4128005720       58.2087175841       -3.6555963352  W2        8139            0.0000000000
     24416      8139  TIP3      H1            -38.3055705720       58.5472575841       -3.7231963352  W2        8139            0.0000000000
     24417      8139  TIP3      H2            -37.5115205720       57.3533275841       -3.2375163352  W2        8139            0.0000000000
     24418      8140  TIP3      OH2           -28.6784605720       57.9497475841       -4.7657363352  W2        8140            0.0000000000
     24419      8140  TIP3      H1            -27.9796705720       58.0236175841       -4.1157663352  W2        8140            0.0000000000
     24420      8140  TIP3      H2            -29.0593205720       57.0852475841       -4.6114463352  W2        8140            0.0000000000
     24421      8141  TIP3      OH2           -27.8939705720       57.6019175841      -13.6685063352  W2        8141            0.0000000000
     24422      8141  TIP3      H1            -27.6741405720       58.0734575841      -14.4719663352  W2        8141            0.0000000000
     24423      8141  TIP3      H2            -27.3355705720       57.9961775841      -12.9984463352  W2        8141            0.0000000000
     24424      8142  TIP3      OH2           -29.8103105720       56.4110975841      -11.8955563352  W2        8142            0.0000000000
     24425      8142  TIP3      H1            -30.1569605720       57.0281575841      -11.2511263352  W2        8142            0.0000000000
     24426      8142  TIP3      H2            -29.1516205720       56.9116675841      -12.3770063352  W2        8142            0.0000000000
     24427      8143  TIP3      OH2           -34.1526105720       57.4740375841      -15.2083063352  W2        8143            0.0000000000
     24428      8143  TIP3      H1            -34.2361305720       58.3623475841      -14.8616663352  W2        8143            0.0000000000
     24429      8143  TIP3      H2            -33.2625805720       57.2087075841      -14.9766263352  W2        8143            0.0000000000
     24430      8144  TIP3      OH2           -23.9537605720       58.2230975841       -2.8140363352  W2        8144            0.0000000000
     24431      8144  TIP3      H1            -24.8701805720       58.4852675841       -2.9016663352  W2        8144            0.0000000000
     24432      8144  TIP3      H2            -23.6182605720       58.2199975841       -3.7105063352  W2        8144            0.0000000000
     24433      8145  TIP3      OH2           -36.7699605720       55.3472175841       -8.3588163352  W2        8145            0.0000000000
     24434      8145  TIP3      H1            -36.9989805720       55.4064675841       -9.2863163352  W2        8145            0.0000000000
     24435      8145  TIP3      H2            -37.2126205720       54.5557675841       -8.0524063352  W2        8145            0.0000000000
     24436      8146  TIP3      OH2           -33.1126905720       57.6442675841       -4.5447363352  W2        8146            0.0000000000
     24437      8146  TIP3      H1            -32.5769405720       58.0959375841       -5.1968063352  W2        8146            0.0000000000
     24438      8146  TIP3      H2            -33.9647305720       57.5362475841       -4.9673263352  W2        8146            0.0000000000
     24439      8147  TIP3      OH2           -32.3071405720       55.1008375841       -4.1133763352  W2        8147            0.0000000000
     24440      8147  TIP3      H1            -32.4051805720       56.0471575841       -4.2187563352  W2        8147            0.0000000000
     24441      8147  TIP3      H2            -33.0495205720       54.7282175841       -4.5890263352  W2        8147            0.0000000000
     24442      8148  TIP3      OH2           -28.3274305720       58.5497275841       -1.4741863352  W2        8148            0.0000000000
     24443      8148  TIP3      H1            -29.2748905720       58.5816975841       -1.3418563352  W2        8148            0.0000000000
     24444      8148  TIP3      H2            -28.0147605720       57.9244375841       -0.8203663352  W2        8148            0.0000000000
     24445      8149  TIP3      OH2           -26.6932805720       57.1838375841        0.5310036648  W2        8149            0.0000000000
     24446      8149  TIP3      H1            -26.7901005720       56.2315675841        0.5251936648  W2        8149            0.0000000000
     24447      8149  TIP3      H2            -27.0149705720       57.4525175841        1.3915536648  W2        8149            0.0000000000
     24448      8150  TIP3      OH2           -36.8663505720       58.3934175841       -0.4214463352  W2        8150            0.0000000000
     24449      8150  TIP3      H1            -36.6546105720       57.6870275841       -1.0316963352  W2        8150            0.0000000000
     24450      8150  TIP3      H2            -36.9776005720       57.9560175841        0.4226736648  W2        8150            0.0000000000
     24451      8151  TIP3      OH2           -32.0853305720       54.3945775841       -1.4420963352  W2        8151            0.0000000000
     24452      8151  TIP3      H1            -31.3734905720       53.7547975841       -1.4561863352  W2        8151            0.0000000000
     24453      8151  TIP3      H2            -32.1862905720       54.6614075841       -2.3557863352  W2        8151            0.0000000000
     24454      8152  TIP3      OH2           -31.7315805720       56.0774175841        0.6115336648  W2        8152            0.0000000000
     24455      8152  TIP3      H1            -31.8633605720       55.6017975841       -0.2086163352  W2        8152            0.0000000000
     24456      8152  TIP3      H2            -32.3308405720       56.8217775841        0.5562436648  W2        8152            0.0000000000
     24457      8153  TIP3      OH2           -23.9752605720       58.0954375841      -17.9096163352  W2        8153            0.0000000000
     24458      8153  TIP3      H1            -23.3646805720       57.7241175841      -17.2727963352  W2        8153            0.0000000000
     24459      8153  TIP3      H2            -24.8121105720       57.6741275841      -17.7136163352  W2        8153            0.0000000000
     24460      8154  TIP3      OH2           -21.4185105720       54.9485675841        0.6217036648  W2        8154            0.0000000000
     24461      8154  TIP3      H1            -21.0688105720       54.2949175841        0.0161736648  W2        8154            0.0000000000
     24462      8154  TIP3      H2            -21.2715605720       55.7859775841        0.1819636648  W2        8154            0.0000000000
     24463      8155  TIP3      OH2           -23.7292105720       56.9132075841      -12.8954263352  W2        8155            0.0000000000
     24464      8155  TIP3      H1            -23.5467105720       56.4643575841      -12.0699263352  W2        8155            0.0000000000
     24465      8155  TIP3      H2            -24.3289205720       56.3286475841      -13.3589663352  W2        8155            0.0000000000
     24466      8156  TIP3      OH2           -38.1992005720       57.7285775841       -8.3635863352  W2        8156            0.0000000000
     24467      8156  TIP3      H1            -37.7540405720       56.9368275841       -8.0616163352  W2        8156            0.0000000000
     24468      8156  TIP3      H2            -37.7329005720       58.4450975841       -7.9330263352  W2        8156            0.0000000000
     24469      8157  TIP3      OH2           -21.8987905720       57.0580275841       -1.0291663352  W2        8157            0.0000000000
     24470      8157  TIP3      H1            -22.8162205720       57.3287375841       -1.0648163352  W2        8157            0.0000000000
     24471      8157  TIP3      H2            -21.7758505720       56.5228675841       -1.8131963352  W2        8157            0.0000000000
     24472      8158  TIP3      OH2           -21.8625905720       56.9810175841      -16.3673963352  W2        8158            0.0000000000
     24473      8158  TIP3      H1            -21.4503305720       56.2595875841      -16.8425963352  W2        8158            0.0000000000
     24474      8158  TIP3      H2            -21.1809405720       57.6504775841      -16.3089663352  W2        8158            0.0000000000
     24475      8159  TIP3      OH2           -39.5815205720       56.9857875841      -13.2403263352  W2        8159            0.0000000000
     24476      8159  TIP3      H1            -40.5066805720       57.1944475841      -13.3697763352  W2        8159            0.0000000000
     24477      8159  TIP3      H2            -39.1275305720       57.4698675841      -13.9300963352  W2        8159            0.0000000000
     24478      8160  TIP3      OH2           -39.6179805720       55.7236875841       -4.8960763352  W2        8160            0.0000000000
     24479      8160  TIP3      H1            -40.2829305720       55.4777175841       -4.2529863352  W2        8160            0.0000000000
     24480      8160  TIP3      H2            -40.0608505720       56.3457275841       -5.4732763352  W2        8160            0.0000000000
     24481      8161  TIP3      OH2           -22.8982005720       55.1476575841       -3.2100863352  W2        8161            0.0000000000
     24482      8161  TIP3      H1            -23.7108505720       55.4726875841       -3.5976163352  W2        8161            0.0000000000
     24483      8161  TIP3      H2            -22.6653505720       54.3875075841       -3.7431763352  W2        8161            0.0000000000
     24484      8162  TIP3      OH2           -29.4683505720       56.5967175841       -8.8872663352  W2        8162            0.0000000000
     24485      8162  TIP3      H1            -30.1426705720       55.9672775841       -8.6316863352  W2        8162            0.0000000000
     24486      8162  TIP3      H2            -28.9044305720       56.1126075841       -9.4904763352  W2        8162            0.0000000000
     24487      8163  TIP3      OH2           -24.3256305720       54.7041175841       -8.7745563352  W2        8163            0.0000000000
     24488      8163  TIP3      H1            -23.7218705720       55.2516575841       -9.2764563352  W2        8163            0.0000000000
     24489      8163  TIP3      H2            -25.1954305720       55.0231575841       -9.0151463352  W2        8163            0.0000000000
     24490      8164  TIP3      OH2           -22.5985905720       55.8429875841      -10.4414663352  W2        8164            0.0000000000
     24491      8164  TIP3      H1            -21.9868405720       55.3285575841      -10.9681063352  W2        8164            0.0000000000
     24492      8164  TIP3      H2            -22.2162505720       56.7201975841      -10.4180263352  W2        8164            0.0000000000
     24493      8165  TIP3      OH2           -37.1416005720       55.2307475841      -11.0652763352  W2        8165            0.0000000000
     24494      8165  TIP3      H1            -37.9186205720       54.9962375841      -11.5726863352  W2        8165            0.0000000000
     24495      8165  TIP3      H2            -36.6112405720       54.4339575841      -11.0564763352  W2        8165            0.0000000000
     24496      8166  TIP3      OH2           -38.3052605720       55.0285575841      -15.2616663352  W2        8166            0.0000000000
     24497      8166  TIP3      H1            -37.8661905720       55.6396075841      -15.8533163352  W2        8166            0.0000000000
     24498      8166  TIP3      H2            -38.9390205720       55.5669675841      -14.7876663352  W2        8166            0.0000000000
     24499      8167  TIP3      OH2           -32.5623405720       55.1574575841      -11.2519663352  W2        8167            0.0000000000
     24500      8167  TIP3      H1            -31.6880005720       55.5458875841      -11.2815363352  W2        8167            0.0000000000
     24501      8167  TIP3      H2            -32.6982605720       54.9422375841      -10.3292463352  W2        8167            0.0000000000
     24502      8168  TIP3      OH2           -27.0055005720       55.1874375841       -9.6027963352  W2        8168            0.0000000000
     24503      8168  TIP3      H1            -26.9293405720       55.2825975841      -10.5521963352  W2        8168            0.0000000000
     24504      8168  TIP3      H2            -27.2805805720       54.2797275841       -9.4738863352  W2        8168            0.0000000000
     24505      8169  TIP3      OH2           -25.6522405720       55.2132175841      -13.9102963352  W2        8169            0.0000000000
     24506      8169  TIP3      H1            -26.3551305720       55.8281375841      -14.1201563352  W2        8169            0.0000000000
     24507      8169  TIP3      H2            -26.0971005720       54.3758875841      -13.7792063352  W2        8169            0.0000000000
     24508      8170  TIP3      OH2           -36.4443505720       56.9447075841      -16.8192563352  W2        8170            0.0000000000
     24509      8170  TIP3      H1            -35.9530105720       56.3149475841      -17.3467063352  W2        8170            0.0000000000
     24510      8170  TIP3      H2            -35.8207205720       57.2406475841      -16.1561363352  W2        8170            0.0000000000
     24511      8171  TIP3      OH2           -31.4183405720       57.2378575841      -14.3622063352  W2        8171            0.0000000000
     24512      8171  TIP3      H1            -31.2402105720       56.5911775841      -13.6793463352  W2        8171            0.0000000000
     24513      8171  TIP3      H2            -31.4717205720       58.0716275841      -13.8950963352  W2        8171            0.0000000000
     24514      8172  TIP3      OH2           -37.1838005720       55.7449375841       -1.5476563352  W2        8172            0.0000000000
     24515      8172  TIP3      H1            -37.5499805720       54.9791975841       -1.1051863352  W2        8172            0.0000000000
     24516      8172  TIP3      H2            -36.2709505720       55.7739575841       -1.2611463352  W2        8172            0.0000000000
     24517      8173  TIP3      OH2           -35.2107205720       55.0953775841       -0.0119463352  W2        8173            0.0000000000
     24518      8173  TIP3      H1            -34.3123605720       54.8213975841       -0.1966063352  W2        8173            0.0000000000
     24519      8173  TIP3      H2            -35.5974105720       54.3529775841        0.4523136648  W2        8173            0.0000000000
     24520      8174  TIP3      OH2           -26.7894905720       54.4279075841        0.1703336648  W2        8174            0.0000000000
     24521      8174  TIP3      H1            -26.7127705720       54.0019775841        1.0241036648  W2        8174            0.0000000000
     24522      8174  TIP3      H2            -25.8958305720       54.4413775841       -0.1723163352  W2        8174            0.0000000000
     24523      8175  TIP3      OH2            -3.2217905720       57.6757175841       -6.4209863352  W2        8175            0.0000000000
     24524      8175  TIP3      H1             -3.1725705720       58.2858375841       -5.6850763352  W2        8175            0.0000000000
     24525      8175  TIP3      H2             -2.7962805720       58.1368075841       -7.1438763352  W2        8175            0.0000000000
     24526      8176  TIP3      OH2           -15.5892405720       58.5700675841       -9.6816463352  W2        8176            0.0000000000
     24527      8176  TIP3      H1            -15.5461305720       59.4299175841      -10.1000163352  W2        8176            0.0000000000
     24528      8176  TIP3      H2            -16.0468305720       58.0175375841      -10.3153263352  W2        8176            0.0000000000
     24529      8177  TIP3      OH2           -16.7790505720       57.4879075841       -5.6075663352  W2        8177            0.0000000000
     24530      8177  TIP3      H1            -16.9978805720       58.0179675841       -6.3739663352  W2        8177            0.0000000000
     24531      8177  TIP3      H2            -17.4469605720       57.7144575841       -4.9604263352  W2        8177            0.0000000000
     24532      8178  TIP3      OH2            -6.1031305720       57.9915575841       -9.3002263352  W2        8178            0.0000000000
     24533      8178  TIP3      H1             -6.3183305720       57.2258975841       -8.7676263352  W2        8178            0.0000000000
     24534      8178  TIP3      H2             -5.4473905720       58.4640175841       -8.7873763352  W2        8178            0.0000000000
     24535      8179  TIP3      OH2            -5.7557205720       56.7066875841       -5.6208763352  W2        8179            0.0000000000
     24536      8179  TIP3      H1             -6.4918005720       57.3173975841       -5.6587463352  W2        8179            0.0000000000
     24537      8179  TIP3      H2             -5.0723205720       57.1215875841       -6.1472363352  W2        8179            0.0000000000
     24538      8180  TIP3      OH2           -12.7525805720       54.7934175841       -8.1550763352  W2        8180            0.0000000000
     24539      8180  TIP3      H1            -12.8701605720       53.8450175841       -8.2092463352  W2        8180            0.0000000000
     24540      8180  TIP3      H2            -13.6075705720       55.1260275841       -7.8819663352  W2        8180            0.0000000000
     24541      8181  TIP3      OH2            -4.5105305720       54.7526375841      -15.2048163352  W2        8181            0.0000000000
     24542      8181  TIP3      H1             -5.4104605720       54.8915375841      -14.9097563352  W2        8181            0.0000000000
     24543      8181  TIP3      H2             -4.2586905720       55.5840975841      -15.6066463352  W2        8181            0.0000000000
     24544      8182  TIP3      OH2           -15.4838205720       55.6968675841       -7.3774463352  W2        8182            0.0000000000
     24545      8182  TIP3      H1            -16.3454505720       55.6096875841       -7.7851563352  W2        8182            0.0000000000
     24546      8182  TIP3      H2            -15.5062505720       56.5528775841       -6.9496863352  W2        8182            0.0000000000
     24547      8183  TIP3      OH2           -10.8210405720       55.4189075841       -4.0027463352  W2        8183            0.0000000000
     24548      8183  TIP3      H1            -10.4007305720       55.0036175841       -3.2496863352  W2        8183            0.0000000000
     24549      8183  TIP3      H2            -11.7540805720       55.2402375841       -3.8855463352  W2        8183            0.0000000000
     24550      8184  TIP3      OH2           -11.1593105720       57.9112475841      -16.7176663352  W2        8184            0.0000000000
     24551      8184  TIP3      H1            -11.4128305720       57.9304075841      -15.7948563352  W2        8184            0.0000000000
     24552      8184  TIP3      H2            -11.4161005720       57.0397875841      -17.0190463352  W2        8184            0.0000000000
     24553      8185  TIP3      OH2           -14.2770205720       58.3568975841      -17.6166263352  W2        8185            0.0000000000
     24554      8185  TIP3      H1            -14.7079505720       57.9119075841      -16.8868863352  W2        8185            0.0000000000
     24555      8185  TIP3      H2            -14.9951505720       58.7285275841      -18.1288763352  W2        8185            0.0000000000
     24556      8186  TIP3      OH2           -21.0346805720       58.0988475841      -10.5647563352  W2        8186            0.0000000000
     24557      8186  TIP3      H1            -20.4039105720       58.0700575841       -9.8453663352  W2        8186            0.0000000000
     24558      8186  TIP3      H2            -20.5852505720       57.6737175841      -11.2951663352  W2        8186            0.0000000000
     24559      8187  TIP3      OH2           -12.8143705720       58.3110775841      -10.2840163352  W2        8187            0.0000000000
     24560      8187  TIP3      H1            -13.7252605720       58.3677575841       -9.9954163352  W2        8187            0.0000000000
     24561      8187  TIP3      H2            -12.3090805720       58.2506275841       -9.4732963352  W2        8187            0.0000000000
     24562      8188  TIP3      OH2            -8.4091805720       57.5457075841       -7.0198363352  W2        8188            0.0000000000
     24563      8188  TIP3      H1             -9.0860205720       57.6770175841       -6.3558663352  W2        8188            0.0000000000
     24564      8188  TIP3      H2             -8.8946905720       57.3906575841       -7.8300663352  W2        8188            0.0000000000
     24565      8189  TIP3      OH2           -16.4924305720       57.2349875841      -11.9785763352  W2        8189            0.0000000000
     24566      8189  TIP3      H1            -16.8094805720       56.3325175841      -12.0140363352  W2        8189            0.0000000000
     24567      8189  TIP3      H2            -15.7110205720       57.2367275841      -12.5314163352  W2        8189            0.0000000000
     24568      8190  TIP3      OH2            -8.4258705720       58.5137475841      -16.0991163352  W2        8190            0.0000000000
     24569      8190  TIP3      H1             -9.3644505720       58.6253075841      -16.2502363352  W2        8190            0.0000000000
     24570      8190  TIP3      H2             -8.1286605720       59.3704375841      -15.7925463352  W2        8190            0.0000000000
     24571      8191  TIP3      OH2           -18.5568005720       58.2087175841       -3.6555963352  W2        8191            0.0000000000
     24572      8191  TIP3      H1            -19.4495705720       58.5472575841       -3.7231963352  W2        8191            0.0000000000
     24573      8191  TIP3      H2            -18.6555205720       57.3533275841       -3.2375163352  W2        8191            0.0000000000
     24574      8192  TIP3      OH2            -9.8224605720       57.9497475841       -4.7657363352  W2        8192            0.0000000000
     24575      8192  TIP3      H1             -9.1236705720       58.0236175841       -4.1157663352  W2        8192            0.0000000000
     24576      8192  TIP3      H2            -10.2033205720       57.0852475841       -4.6114463352  W2        8192            0.0000000000
     24577      8193  TIP3      OH2            -9.0379705720       57.6019175841      -13.6685063352  W2        8193            0.0000000000
     24578      8193  TIP3      H1             -8.8181405720       58.0734575841      -14.4719663352  W2        8193            0.0000000000
     24579      8193  TIP3      H2             -8.4795705720       57.9961775841      -12.9984463352  W2        8193            0.0000000000
     24580      8194  TIP3      OH2           -10.9543105720       56.4110975841      -11.8955563352  W2        8194            0.0000000000
     24581      8194  TIP3      H1            -11.3009605720       57.0281575841      -11.2511263352  W2        8194            0.0000000000
     24582      8194  TIP3      H2            -10.2956205720       56.9116675841      -12.3770063352  W2        8194            0.0000000000
     24583      8195  TIP3      OH2           -15.2966105720       57.4740375841      -15.2083063352  W2        8195            0.0000000000
     24584      8195  TIP3      H1            -15.3801305720       58.3623475841      -14.8616663352  W2        8195            0.0000000000
     24585      8195  TIP3      H2            -14.4065805720       57.2087075841      -14.9766263352  W2        8195            0.0000000000
     24586      8196  TIP3      OH2            -5.0977605720       58.2230975841       -2.8140363352  W2        8196            0.0000000000
     24587      8196  TIP3      H1             -6.0141805720       58.4852675841       -2.9016663352  W2        8196            0.0000000000
     24588      8196  TIP3      H2             -4.7622605720       58.2199975841       -3.7105063352  W2        8196            0.0000000000
     24589      8197  TIP3      OH2           -17.9139605720       55.3472175841       -8.3588163352  W2        8197            0.0000000000
     24590      8197  TIP3      H1            -18.1429805720       55.4064675841       -9.2863163352  W2        8197            0.0000000000
     24591      8197  TIP3      H2            -18.3566205720       54.5557675841       -8.0524063352  W2        8197            0.0000000000
     24592      8198  TIP3      OH2           -14.2566905720       57.6442675841       -4.5447363352  W2        8198            0.0000000000
     24593      8198  TIP3      H1            -13.7209405720       58.0959375841       -5.1968063352  W2        8198            0.0000000000
     24594      8198  TIP3      H2            -15.1087305720       57.5362475841       -4.9673263352  W2        8198            0.0000000000
     24595      8199  TIP3      OH2           -13.4511405720       55.1008375841       -4.1133763352  W2        8199            0.0000000000
     24596      8199  TIP3      H1            -13.5491805720       56.0471575841       -4.2187563352  W2        8199            0.0000000000
     24597      8199  TIP3      H2            -14.1935205720       54.7282175841       -4.5890263352  W2        8199            0.0000000000
     24598      8200  TIP3      OH2            -9.4714305720       58.5497275841       -1.4741863352  W2        8200            0.0000000000
     24599      8200  TIP3      H1            -10.4188905720       58.5816975841       -1.3418563352  W2        8200            0.0000000000
     24600      8200  TIP3      H2             -9.1587605720       57.9244375841       -0.8203663352  W2        8200            0.0000000000
     24601      8201  TIP3      OH2            -7.8372805720       57.1838375841        0.5310036648  W2        8201            0.0000000000
     24602      8201  TIP3      H1             -7.9341005720       56.2315675841        0.5251936648  W2        8201            0.0000000000
     24603      8201  TIP3      H2             -8.1589705720       57.4525175841        1.3915536648  W2        8201            0.0000000000
     24604      8202  TIP3      OH2           -18.0103505720       58.3934175841       -0.4214463352  W2        8202            0.0000000000
     24605      8202  TIP3      H1            -17.7986105720       57.6870275841       -1.0316963352  W2        8202            0.0000000000
     24606      8202  TIP3      H2            -18.1216005720       57.9560175841        0.4226736648  W2        8202            0.0000000000
     24607      8203  TIP3      OH2           -13.2293305720       54.3945775841       -1.4420963352  W2        8203            0.0000000000
     24608      8203  TIP3      H1            -12.5174905720       53.7547975841       -1.4561863352  W2        8203            0.0000000000
     24609      8203  TIP3      H2            -13.3302905720       54.6614075841       -2.3557863352  W2        8203            0.0000000000
     24610      8204  TIP3      OH2           -12.8755805720       56.0774175841        0.6115336648  W2        8204            0.0000000000
     24611      8204  TIP3      H1            -13.0073605720       55.6017975841       -0.2086163352  W2        8204            0.0000000000
     24612      8204  TIP3      H2            -13.4748405720       56.8217775841        0.5562436648  W2        8204            0.0000000000
     24613      8205  TIP3      OH2            -5.1192605720       58.0954375841      -17.9096163352  W2        8205            0.0000000000
     24614      8205  TIP3      H1             -4.5086805720       57.7241175841      -17.2727963352  W2        8205            0.0000000000
     24615      8205  TIP3      H2             -5.9561105720       57.6741275841      -17.7136163352  W2        8205            0.0000000000
     24616      8206  TIP3      OH2            -2.5625105720       54.9485675841        0.6217036648  W2        8206            0.0000000000
     24617      8206  TIP3      H1             -2.2128105720       54.2949175841        0.0161736648  W2        8206            0.0000000000
     24618      8206  TIP3      H2             -2.4155605720       55.7859775841        0.1819636648  W2        8206            0.0000000000
     24619      8207  TIP3      OH2            -4.8732105720       56.9132075841      -12.8954263352  W2        8207            0.0000000000
     24620      8207  TIP3      H1             -4.6907105720       56.4643575841      -12.0699263352  W2        8207            0.0000000000
     24621      8207  TIP3      H2             -5.4729205720       56.3286475841      -13.3589663352  W2        8207            0.0000000000
     24622      8208  TIP3      OH2           -19.3432005720       57.7285775841       -8.3635863352  W2        8208            0.0000000000
     24623      8208  TIP3      H1            -18.8980405720       56.9368275841       -8.0616163352  W2        8208            0.0000000000
     24624      8208  TIP3      H2            -18.8769005720       58.4450975841       -7.9330263352  W2        8208            0.0000000000
     24625      8209  TIP3      OH2            -3.0427905720       57.0580275841       -1.0291663352  W2        8209            0.0000000000
     24626      8209  TIP3      H1             -3.9602205720       57.3287375841       -1.0648163352  W2        8209            0.0000000000
     24627      8209  TIP3      H2             -2.9198505720       56.5228675841       -1.8131963352  W2        8209            0.0000000000
     24628      8210  TIP3      OH2            -3.0065905720       56.9810175841      -16.3673963352  W2        8210            0.0000000000
     24629      8210  TIP3      H1             -2.5943305720       56.2595875841      -16.8425963352  W2        8210            0.0000000000
     24630      8210  TIP3      H2             -2.3249405720       57.6504775841      -16.3089663352  W2        8210            0.0000000000
     24631      8211  TIP3      OH2           -20.7255205720       56.9857875841      -13.2403263352  W2        8211            0.0000000000
     24632      8211  TIP3      H1            -21.6506805720       57.1944475841      -13.3697763352  W2        8211            0.0000000000
     24633      8211  TIP3      H2            -20.2715305720       57.4698675841      -13.9300963352  W2        8211            0.0000000000
     24634      8212  TIP3      OH2           -20.7619805720       55.7236875841       -4.8960763352  W2        8212            0.0000000000
     24635      8212  TIP3      H1            -21.4269305720       55.4777175841       -4.2529863352  W2        8212            0.0000000000
     24636      8212  TIP3      H2            -21.2048505720       56.3457275841       -5.4732763352  W2        8212            0.0000000000
     24637      8213  TIP3      OH2            -4.0422005720       55.1476575841       -3.2100863352  W2        8213            0.0000000000
     24638      8213  TIP3      H1             -4.8548505720       55.4726875841       -3.5976163352  W2        8213            0.0000000000
     24639      8213  TIP3      H2             -3.8093505720       54.3875075841       -3.7431763352  W2        8213            0.0000000000
     24640      8214  TIP3      OH2           -10.6123505720       56.5967175841       -8.8872663352  W2        8214            0.0000000000
     24641      8214  TIP3      H1            -11.2866705720       55.9672775841       -8.6316863352  W2        8214            0.0000000000
     24642      8214  TIP3      H2            -10.0484305720       56.1126075841       -9.4904763352  W2        8214            0.0000000000
     24643      8215  TIP3      OH2            -5.4696305720       54.7041175841       -8.7745563352  W2        8215            0.0000000000
     24644      8215  TIP3      H1             -4.8658705720       55.2516575841       -9.2764563352  W2        8215            0.0000000000
     24645      8215  TIP3      H2             -6.3394305720       55.0231575841       -9.0151463352  W2        8215            0.0000000000
     24646      8216  TIP3      OH2            -3.7425905720       55.8429875841      -10.4414663352  W2        8216            0.0000000000
     24647      8216  TIP3      H1             -3.1308405720       55.3285575841      -10.9681063352  W2        8216            0.0000000000
     24648      8216  TIP3      H2             -3.3602505720       56.7201975841      -10.4180263352  W2        8216            0.0000000000
     24649      8217  TIP3      OH2           -18.2856005720       55.2307475841      -11.0652763352  W2        8217            0.0000000000
     24650      8217  TIP3      H1            -19.0626205720       54.9962375841      -11.5726863352  W2        8217            0.0000000000
     24651      8217  TIP3      H2            -17.7552405720       54.4339575841      -11.0564763352  W2        8217            0.0000000000
     24652      8218  TIP3      OH2           -19.4492605720       55.0285575841      -15.2616663352  W2        8218            0.0000000000
     24653      8218  TIP3      H1            -19.0101905720       55.6396075841      -15.8533163352  W2        8218            0.0000000000
     24654      8218  TIP3      H2            -20.0830205720       55.5669675841      -14.7876663352  W2        8218            0.0000000000
     24655      8219  TIP3      OH2           -13.7063405720       55.1574575841      -11.2519663352  W2        8219            0.0000000000
     24656      8219  TIP3      H1            -12.8320005720       55.5458875841      -11.2815363352  W2        8219            0.0000000000
     24657      8219  TIP3      H2            -13.8422605720       54.9422375841      -10.3292463352  W2        8219            0.0000000000
     24658      8220  TIP3      OH2            -8.1495005720       55.1874375841       -9.6027963352  W2        8220            0.0000000000
     24659      8220  TIP3      H1             -8.0733405720       55.2825975841      -10.5521963352  W2        8220            0.0000000000
     24660      8220  TIP3      H2             -8.4245805720       54.2797275841       -9.4738863352  W2        8220            0.0000000000
     24661      8221  TIP3      OH2            -6.7962405720       55.2132175841      -13.9102963352  W2        8221            0.0000000000
     24662      8221  TIP3      H1             -7.4991305720       55.8281375841      -14.1201563352  W2        8221            0.0000000000
     24663      8221  TIP3      H2             -7.2411005720       54.3758875841      -13.7792063352  W2        8221            0.0000000000
     24664      8222  TIP3      OH2           -17.5883505720       56.9447075841      -16.8192563352  W2        8222            0.0000000000
     24665      8222  TIP3      H1            -17.0970105720       56.3149475841      -17.3467063352  W2        8222            0.0000000000
     24666      8222  TIP3      H2            -16.9647205720       57.2406475841      -16.1561363352  W2        8222            0.0000000000
     24667      8223  TIP3      OH2           -12.5623405720       57.2378575841      -14.3622063352  W2        8223            0.0000000000
     24668      8223  TIP3      H1            -12.3842105720       56.5911775841      -13.6793463352  W2        8223            0.0000000000
     24669      8223  TIP3      H2            -12.6157205720       58.0716275841      -13.8950963352  W2        8223            0.0000000000
     24670      8224  TIP3      OH2           -18.3278005720       55.7449375841       -1.5476563352  W2        8224            0.0000000000
     24671      8224  TIP3      H1            -18.6939805720       54.9791975841       -1.1051863352  W2        8224            0.0000000000
     24672      8224  TIP3      H2            -17.4149505720       55.7739575841       -1.2611463352  W2        8224            0.0000000000
     24673      8225  TIP3      OH2           -16.3547205720       55.0953775841       -0.0119463352  W2        8225            0.0000000000
     24674      8225  TIP3      H1            -15.4563605720       54.8213975841       -0.1966063352  W2        8225            0.0000000000
     24675      8225  TIP3      H2            -16.7414105720       54.3529775841        0.4523136648  W2        8225            0.0000000000
     24676      8226  TIP3      OH2            -7.9334905720       54.4279075841        0.1703336648  W2        8226            0.0000000000
     24677      8226  TIP3      H1             -7.8567705720       54.0019775841        1.0241036648  W2        8226            0.0000000000
     24678      8226  TIP3      H2             -7.0398305720       54.4413775841       -0.1723163352  W2        8226            0.0000000000
     24679      8227  TIP3      OH2            15.6342094280       57.6757175841       -6.4209863352  W2        8227            0.0000000000
     24680      8227  TIP3      H1             15.6834294280       58.2858375841       -5.6850763352  W2        8227            0.0000000000
     24681      8227  TIP3      H2             16.0597194280       58.1368075841       -7.1438763352  W2        8227            0.0000000000
     24682      8228  TIP3      OH2             3.2667594280       58.5700675841       -9.6816463352  W2        8228            0.0000000000
     24683      8228  TIP3      H1              3.3098694280       59.4299175841      -10.1000163352  W2        8228            0.0000000000
     24684      8228  TIP3      H2              2.8091694280       58.0175375841      -10.3153263352  W2        8228            0.0000000000
     24685      8229  TIP3      OH2             2.0769494280       57.4879075841       -5.6075663352  W2        8229            0.0000000000
     24686      8229  TIP3      H1              1.8581194280       58.0179675841       -6.3739663352  W2        8229            0.0000000000
     24687      8229  TIP3      H2              1.4090394280       57.7144575841       -4.9604263352  W2        8229            0.0000000000
     24688      8230  TIP3      OH2            12.7528694280       57.9915575841       -9.3002263352  W2        8230            0.0000000000
     24689      8230  TIP3      H1             12.5376694280       57.2258975841       -8.7676263352  W2        8230            0.0000000000
     24690      8230  TIP3      H2             13.4086094280       58.4640175841       -8.7873763352  W2        8230            0.0000000000
     24691      8231  TIP3      OH2            13.1002794280       56.7066875841       -5.6208763352  W2        8231            0.0000000000
     24692      8231  TIP3      H1             12.3641994280       57.3173975841       -5.6587463352  W2        8231            0.0000000000
     24693      8231  TIP3      H2             13.7836794280       57.1215875841       -6.1472363352  W2        8231            0.0000000000
     24694      8232  TIP3      OH2             6.1034194280       54.7934175841       -8.1550763352  W2        8232            0.0000000000
     24695      8232  TIP3      H1              5.9858394280       53.8450175841       -8.2092463352  W2        8232            0.0000000000
     24696      8232  TIP3      H2              5.2484294280       55.1260275841       -7.8819663352  W2        8232            0.0000000000
     24697      8233  TIP3      OH2            14.3454694280       54.7526375841      -15.2048163352  W2        8233            0.0000000000
     24698      8233  TIP3      H1             13.4455394280       54.8915375841      -14.9097563352  W2        8233            0.0000000000
     24699      8233  TIP3      H2             14.5973094280       55.5840975841      -15.6066463352  W2        8233            0.0000000000
     24700      8234  TIP3      OH2             3.3721794280       55.6968675841       -7.3774463352  W2        8234            0.0000000000
     24701      8234  TIP3      H1              2.5105494280       55.6096875841       -7.7851563352  W2        8234            0.0000000000
     24702      8234  TIP3      H2              3.3497494280       56.5528775841       -6.9496863352  W2        8234            0.0000000000
     24703      8235  TIP3      OH2             8.0349594280       55.4189075841       -4.0027463352  W2        8235            0.0000000000
     24704      8235  TIP3      H1              8.4552694280       55.0036175841       -3.2496863352  W2        8235            0.0000000000
     24705      8235  TIP3      H2              7.1019194280       55.2402375841       -3.8855463352  W2        8235            0.0000000000
     24706      8236  TIP3      OH2             7.6966894280       57.9112475841      -16.7176663352  W2        8236            0.0000000000
     24707      8236  TIP3      H1              7.4431694280       57.9304075841      -15.7948563352  W2        8236            0.0000000000
     24708      8236  TIP3      H2              7.4398994280       57.0397875841      -17.0190463352  W2        8236            0.0000000000
     24709      8237  TIP3      OH2             4.5789794280       58.3568975841      -17.6166263352  W2        8237            0.0000000000
     24710      8237  TIP3      H1              4.1480494280       57.9119075841      -16.8868863352  W2        8237            0.0000000000
     24711      8237  TIP3      H2              3.8608494280       58.7285275841      -18.1288763352  W2        8237            0.0000000000
     24712      8238  TIP3      OH2            -2.1786805720       58.0988475841      -10.5647563352  W2        8238            0.0000000000
     24713      8238  TIP3      H1             -1.5479105720       58.0700575841       -9.8453663352  W2        8238            0.0000000000
     24714      8238  TIP3      H2             -1.7292505720       57.6737175841      -11.2951663352  W2        8238            0.0000000000
     24715      8239  TIP3      OH2             6.0416294280       58.3110775841      -10.2840163352  W2        8239            0.0000000000
     24716      8239  TIP3      H1              5.1307394280       58.3677575841       -9.9954163352  W2        8239            0.0000000000
     24717      8239  TIP3      H2              6.5469194280       58.2506275841       -9.4732963352  W2        8239            0.0000000000
     24718      8240  TIP3      OH2            10.4468194280       57.5457075841       -7.0198363352  W2        8240            0.0000000000
     24719      8240  TIP3      H1              9.7699794280       57.6770175841       -6.3558663352  W2        8240            0.0000000000
     24720      8240  TIP3      H2              9.9613094280       57.3906575841       -7.8300663352  W2        8240            0.0000000000
     24721      8241  TIP3      OH2             2.3635694280       57.2349875841      -11.9785763352  W2        8241            0.0000000000
     24722      8241  TIP3      H1              2.0465194280       56.3325175841      -12.0140363352  W2        8241            0.0000000000
     24723      8241  TIP3      H2              3.1449794280       57.2367275841      -12.5314163352  W2        8241            0.0000000000
     24724      8242  TIP3      OH2            10.4301294280       58.5137475841      -16.0991163352  W2        8242            0.0000000000
     24725      8242  TIP3      H1              9.4915494280       58.6253075841      -16.2502363352  W2        8242            0.0000000000
     24726      8242  TIP3      H2             10.7273394280       59.3704375841      -15.7925463352  W2        8242            0.0000000000
     24727      8243  TIP3      OH2             0.2991994280       58.2087175841       -3.6555963352  W2        8243            0.0000000000
     24728      8243  TIP3      H1             -0.5935705720       58.5472575841       -3.7231963352  W2        8243            0.0000000000
     24729      8243  TIP3      H2              0.2004794280       57.3533275841       -3.2375163352  W2        8243            0.0000000000
     24730      8244  TIP3      OH2             9.0335394280       57.9497475841       -4.7657363352  W2        8244            0.0000000000
     24731      8244  TIP3      H1              9.7323294280       58.0236175841       -4.1157663352  W2        8244            0.0000000000
     24732      8244  TIP3      H2              8.6526794280       57.0852475841       -4.6114463352  W2        8244            0.0000000000
     24733      8245  TIP3      OH2             9.8180294280       57.6019175841      -13.6685063352  W2        8245            0.0000000000
     24734      8245  TIP3      H1             10.0378594280       58.0734575841      -14.4719663352  W2        8245            0.0000000000
     24735      8245  TIP3      H2             10.3764294280       57.9961775841      -12.9984463352  W2        8245            0.0000000000
     24736      8246  TIP3      OH2             7.9016894280       56.4110975841      -11.8955563352  W2        8246            0.0000000000
     24737      8246  TIP3      H1              7.5550394280       57.0281575841      -11.2511263352  W2        8246            0.0000000000
     24738      8246  TIP3      H2              8.5603794280       56.9116675841      -12.3770063352  W2        8246            0.0000000000
     24739      8247  TIP3      OH2             3.5593894280       57.4740375841      -15.2083063352  W2        8247            0.0000000000
     24740      8247  TIP3      H1              3.4758694280       58.3623475841      -14.8616663352  W2        8247            0.0000000000
     24741      8247  TIP3      H2              4.4494194280       57.2087075841      -14.9766263352  W2        8247            0.0000000000
     24742      8248  TIP3      OH2            13.7582394280       58.2230975841       -2.8140363352  W2        8248            0.0000000000
     24743      8248  TIP3      H1             12.8418194280       58.4852675841       -2.9016663352  W2        8248            0.0000000000
     24744      8248  TIP3      H2             14.0937394280       58.2199975841       -3.7105063352  W2        8248            0.0000000000
     24745      8249  TIP3      OH2             0.9420394280       55.3472175841       -8.3588163352  W2        8249            0.0000000000
     24746      8249  TIP3      H1              0.7130194280       55.4064675841       -9.2863163352  W2        8249            0.0000000000
     24747      8249  TIP3      H2              0.4993794280       54.5557675841       -8.0524063352  W2        8249            0.0000000000
     24748      8250  TIP3      OH2             4.5993094280       57.6442675841       -4.5447363352  W2        8250            0.0000000000
     24749      8250  TIP3      H1              5.1350594280       58.0959375841       -5.1968063352  W2        8250            0.0000000000
     24750      8250  TIP3      H2              3.7472694280       57.5362475841       -4.9673263352  W2        8250            0.0000000000
     24751      8251  TIP3      OH2             5.4048594280       55.1008375841       -4.1133763352  W2        8251            0.0000000000
     24752      8251  TIP3      H1              5.3068194280       56.0471575841       -4.2187563352  W2        8251            0.0000000000
     24753      8251  TIP3      H2              4.6624794280       54.7282175841       -4.5890263352  W2        8251            0.0000000000
     24754      8252  TIP3      OH2             9.3845694280       58.5497275841       -1.4741863352  W2        8252            0.0000000000
     24755      8252  TIP3      H1              8.4371094280       58.5816975841       -1.3418563352  W2        8252            0.0000000000
     24756      8252  TIP3      H2              9.6972394280       57.9244375841       -0.8203663352  W2        8252            0.0000000000
     24757      8253  TIP3      OH2            11.0187194280       57.1838375841        0.5310036648  W2        8253            0.0000000000
     24758      8253  TIP3      H1             10.9218994280       56.2315675841        0.5251936648  W2        8253            0.0000000000
     24759      8253  TIP3      H2             10.6970294280       57.4525175841        1.3915536648  W2        8253            0.0000000000
     24760      8254  TIP3      OH2             0.8456494280       58.3934175841       -0.4214463352  W2        8254            0.0000000000
     24761      8254  TIP3      H1              1.0573894280       57.6870275841       -1.0316963352  W2        8254            0.0000000000
     24762      8254  TIP3      H2              0.7343994280       57.9560175841        0.4226736648  W2        8254            0.0000000000
     24763      8255  TIP3      OH2             5.6266694280       54.3945775841       -1.4420963352  W2        8255            0.0000000000
     24764      8255  TIP3      H1              6.3385094280       53.7547975841       -1.4561863352  W2        8255            0.0000000000
     24765      8255  TIP3      H2              5.5257094280       54.6614075841       -2.3557863352  W2        8255            0.0000000000
     24766      8256  TIP3      OH2             5.9804194280       56.0774175841        0.6115336648  W2        8256            0.0000000000
     24767      8256  TIP3      H1              5.8486394280       55.6017975841       -0.2086163352  W2        8256            0.0000000000
     24768      8256  TIP3      H2              5.3811594280       56.8217775841        0.5562436648  W2        8256            0.0000000000
     24769      8257  TIP3      OH2            13.7367394280       58.0954375841      -17.9096163352  W2        8257            0.0000000000
     24770      8257  TIP3      H1             14.3473194280       57.7241175841      -17.2727963352  W2        8257            0.0000000000
     24771      8257  TIP3      H2             12.8998894280       57.6741275841      -17.7136163352  W2        8257            0.0000000000
     24772      8258  TIP3      OH2            16.2934894280       54.9485675841        0.6217036648  W2        8258            0.0000000000
     24773      8258  TIP3      H1             16.6431894280       54.2949175841        0.0161736648  W2        8258            0.0000000000
     24774      8258  TIP3      H2             16.4404394280       55.7859775841        0.1819636648  W2        8258            0.0000000000
     24775      8259  TIP3      OH2            13.9827894280       56.9132075841      -12.8954263352  W2        8259            0.0000000000
     24776      8259  TIP3      H1             14.1652894280       56.4643575841      -12.0699263352  W2        8259            0.0000000000
     24777      8259  TIP3      H2             13.3830794280       56.3286475841      -13.3589663352  W2        8259            0.0000000000
     24778      8260  TIP3      OH2            -0.4872005720       57.7285775841       -8.3635863352  W2        8260            0.0000000000
     24779      8260  TIP3      H1             -0.0420405720       56.9368275841       -8.0616163352  W2        8260            0.0000000000
     24780      8260  TIP3      H2             -0.0209005720       58.4450975841       -7.9330263352  W2        8260            0.0000000000
     24781      8261  TIP3      OH2            15.8132094280       57.0580275841       -1.0291663352  W2        8261            0.0000000000
     24782      8261  TIP3      H1             14.8957794280       57.3287375841       -1.0648163352  W2        8261            0.0000000000
     24783      8261  TIP3      H2             15.9361494280       56.5228675841       -1.8131963352  W2        8261            0.0000000000
     24784      8262  TIP3      OH2            15.8494094280       56.9810175841      -16.3673963352  W2        8262            0.0000000000
     24785      8262  TIP3      H1             16.2616694280       56.2595875841      -16.8425963352  W2        8262            0.0000000000
     24786      8262  TIP3      H2             16.5310594280       57.6504775841      -16.3089663352  W2        8262            0.0000000000
     24787      8263  TIP3      OH2            -1.8695205720       56.9857875841      -13.2403263352  W2        8263            0.0000000000
     24788      8263  TIP3      H1             -2.7946805720       57.1944475841      -13.3697763352  W2        8263            0.0000000000
     24789      8263  TIP3      H2             -1.4155305720       57.4698675841      -13.9300963352  W2        8263            0.0000000000
     24790      8264  TIP3      OH2            -1.9059805720       55.7236875841       -4.8960763352  W2        8264            0.0000000000
     24791      8264  TIP3      H1             -2.5709305720       55.4777175841       -4.2529863352  W2        8264            0.0000000000
     24792      8264  TIP3      H2             -2.3488505720       56.3457275841       -5.4732763352  W2        8264            0.0000000000
     24793      8265  TIP3      OH2            14.8137994280       55.1476575841       -3.2100863352  W2        8265            0.0000000000
     24794      8265  TIP3      H1             14.0011494280       55.4726875841       -3.5976163352  W2        8265            0.0000000000
     24795      8265  TIP3      H2             15.0466494280       54.3875075841       -3.7431763352  W2        8265            0.0000000000
     24796      8266  TIP3      OH2             8.2436494280       56.5967175841       -8.8872663352  W2        8266            0.0000000000
     24797      8266  TIP3      H1              7.5693294280       55.9672775841       -8.6316863352  W2        8266            0.0000000000
     24798      8266  TIP3      H2              8.8075694280       56.1126075841       -9.4904763352  W2        8266            0.0000000000
     24799      8267  TIP3      OH2            13.3863694280       54.7041175841       -8.7745563352  W2        8267            0.0000000000
     24800      8267  TIP3      H1             13.9901294280       55.2516575841       -9.2764563352  W2        8267            0.0000000000
     24801      8267  TIP3      H2             12.5165694280       55.0231575841       -9.0151463352  W2        8267            0.0000000000
     24802      8268  TIP3      OH2            15.1134094280       55.8429875841      -10.4414663352  W2        8268            0.0000000000
     24803      8268  TIP3      H1             15.7251594280       55.3285575841      -10.9681063352  W2        8268            0.0000000000
     24804      8268  TIP3      H2             15.4957494280       56.7201975841      -10.4180263352  W2        8268            0.0000000000
     24805      8269  TIP3      OH2             0.5703994280       55.2307475841      -11.0652763352  W2        8269            0.0000000000
     24806      8269  TIP3      H1             -0.2066205720       54.9962375841      -11.5726863352  W2        8269            0.0000000000
     24807      8269  TIP3      H2              1.1007594280       54.4339575841      -11.0564763352  W2        8269            0.0000000000
     24808      8270  TIP3      OH2            -0.5932605720       55.0285575841      -15.2616663352  W2        8270            0.0000000000
     24809      8270  TIP3      H1             -0.1541905720       55.6396075841      -15.8533163352  W2        8270            0.0000000000
     24810      8270  TIP3      H2             -1.2270205720       55.5669675841      -14.7876663352  W2        8270            0.0000000000
     24811      8271  TIP3      OH2             5.1496594280       55.1574575841      -11.2519663352  W2        8271            0.0000000000
     24812      8271  TIP3      H1              6.0239994280       55.5458875841      -11.2815363352  W2        8271            0.0000000000
     24813      8271  TIP3      H2              5.0137394280       54.9422375841      -10.3292463352  W2        8271            0.0000000000
     24814      8272  TIP3      OH2            10.7064994280       55.1874375841       -9.6027963352  W2        8272            0.0000000000
     24815      8272  TIP3      H1             10.7826594280       55.2825975841      -10.5521963352  W2        8272            0.0000000000
     24816      8272  TIP3      H2             10.4314194280       54.2797275841       -9.4738863352  W2        8272            0.0000000000
     24817      8273  TIP3      OH2            12.0597594280       55.2132175841      -13.9102963352  W2        8273            0.0000000000
     24818      8273  TIP3      H1             11.3568694280       55.8281375841      -14.1201563352  W2        8273            0.0000000000
     24819      8273  TIP3      H2             11.6148994280       54.3758875841      -13.7792063352  W2        8273            0.0000000000
     24820      8274  TIP3      OH2             1.2676494280       56.9447075841      -16.8192563352  W2        8274            0.0000000000
     24821      8274  TIP3      H1              1.7589894280       56.3149475841      -17.3467063352  W2        8274            0.0000000000
     24822      8274  TIP3      H2              1.8912794280       57.2406475841      -16.1561363352  W2        8274            0.0000000000
     24823      8275  TIP3      OH2             6.2936594280       57.2378575841      -14.3622063352  W2        8275            0.0000000000
     24824      8275  TIP3      H1              6.4717894280       56.5911775841      -13.6793463352  W2        8275            0.0000000000
     24825      8275  TIP3      H2              6.2402794280       58.0716275841      -13.8950963352  W2        8275            0.0000000000
     24826      8276  TIP3      OH2             0.5281994280       55.7449375841       -1.5476563352  W2        8276            0.0000000000
     24827      8276  TIP3      H1              0.1620194280       54.9791975841       -1.1051863352  W2        8276            0.0000000000
     24828      8276  TIP3      H2              1.4410494280       55.7739575841       -1.2611463352  W2        8276            0.0000000000
     24829      8277  TIP3      OH2             2.5012794280       55.0953775841       -0.0119463352  W2        8277            0.0000000000
     24830      8277  TIP3      H1              3.3996394280       54.8213975841       -0.1966063352  W2        8277            0.0000000000
     24831      8277  TIP3      H2              2.1145894280       54.3529775841        0.4523136648  W2        8277            0.0000000000
     24832      8278  TIP3      OH2            10.9225094280       54.4279075841        0.1703336648  W2        8278            0.0000000000
     24833      8278  TIP3      H1             10.9992294280       54.0019775841        1.0241036648  W2        8278            0.0000000000
     24834      8278  TIP3      H2             11.8161694280       54.4413775841       -0.1723163352  W2        8278            0.0000000000
     24835      8279  TIP3      OH2            34.4902094280       57.6757175841       -6.4209863352  W2        8279            0.0000000000
     24836      8279  TIP3      H1             34.5394294280       58.2858375841       -5.6850763352  W2        8279            0.0000000000
     24837      8279  TIP3      H2             34.9157194280       58.1368075841       -7.1438763352  W2        8279            0.0000000000
     24838      8280  TIP3      OH2            22.1227594280       58.5700675841       -9.6816463352  W2        8280            0.0000000000
     24839      8280  TIP3      H1             22.1658694280       59.4299175841      -10.1000163352  W2        8280            0.0000000000
     24840      8280  TIP3      H2             21.6651694280       58.0175375841      -10.3153263352  W2        8280            0.0000000000
     24841      8281  TIP3      OH2            20.9329494280       57.4879075841       -5.6075663352  W2        8281            0.0000000000
     24842      8281  TIP3      H1             20.7141194280       58.0179675841       -6.3739663352  W2        8281            0.0000000000
     24843      8281  TIP3      H2             20.2650394280       57.7144575841       -4.9604263352  W2        8281            0.0000000000
     24844      8282  TIP3      OH2            31.6088694280       57.9915575841       -9.3002263352  W2        8282            0.0000000000
     24845      8282  TIP3      H1             31.3936694280       57.2258975841       -8.7676263352  W2        8282            0.0000000000
     24846      8282  TIP3      H2             32.2646094280       58.4640175841       -8.7873763352  W2        8282            0.0000000000
     24847      8283  TIP3      OH2            31.9562794280       56.7066875841       -5.6208763352  W2        8283            0.0000000000
     24848      8283  TIP3      H1             31.2201994280       57.3173975841       -5.6587463352  W2        8283            0.0000000000
     24849      8283  TIP3      H2             32.6396794280       57.1215875841       -6.1472363352  W2        8283            0.0000000000
     24850      8284  TIP3      OH2            24.9594194280       54.7934175841       -8.1550763352  W2        8284            0.0000000000
     24851      8284  TIP3      H1             24.8418394280       53.8450175841       -8.2092463352  W2        8284            0.0000000000
     24852      8284  TIP3      H2             24.1044294280       55.1260275841       -7.8819663352  W2        8284            0.0000000000
     24853      8285  TIP3      OH2            33.2014694280       54.7526375841      -15.2048163352  W2        8285            0.0000000000
     24854      8285  TIP3      H1             32.3015394280       54.8915375841      -14.9097563352  W2        8285            0.0000000000
     24855      8285  TIP3      H2             33.4533094280       55.5840975841      -15.6066463352  W2        8285            0.0000000000
     24856      8286  TIP3      OH2            22.2281794280       55.6968675841       -7.3774463352  W2        8286            0.0000000000
     24857      8286  TIP3      H1             21.3665494280       55.6096875841       -7.7851563352  W2        8286            0.0000000000
     24858      8286  TIP3      H2             22.2057494280       56.5528775841       -6.9496863352  W2        8286            0.0000000000
     24859      8287  TIP3      OH2            26.8909594280       55.4189075841       -4.0027463352  W2        8287            0.0000000000
     24860      8287  TIP3      H1             27.3112694280       55.0036175841       -3.2496863352  W2        8287            0.0000000000
     24861      8287  TIP3      H2             25.9579194280       55.2402375841       -3.8855463352  W2        8287            0.0000000000
     24862      8288  TIP3      OH2            26.5526894280       57.9112475841      -16.7176663352  W2        8288            0.0000000000
     24863      8288  TIP3      H1             26.2991694280       57.9304075841      -15.7948563352  W2        8288            0.0000000000
     24864      8288  TIP3      H2             26.2958994280       57.0397875841      -17.0190463352  W2        8288            0.0000000000
     24865      8289  TIP3      OH2            23.4349794280       58.3568975841      -17.6166263352  W2        8289            0.0000000000
     24866      8289  TIP3      H1             23.0040494280       57.9119075841      -16.8868863352  W2        8289            0.0000000000
     24867      8289  TIP3      H2             22.7168494280       58.7285275841      -18.1288763352  W2        8289            0.0000000000
     24868      8290  TIP3      OH2            16.6773194280       58.0988475841      -10.5647563352  W2        8290            0.0000000000
     24869      8290  TIP3      H1             17.3080894280       58.0700575841       -9.8453663352  W2        8290            0.0000000000
     24870      8290  TIP3      H2             17.1267494280       57.6737175841      -11.2951663352  W2        8290            0.0000000000
     24871      8291  TIP3      OH2            24.8976294280       58.3110775841      -10.2840163352  W2        8291            0.0000000000
     24872      8291  TIP3      H1             23.9867394280       58.3677575841       -9.9954163352  W2        8291            0.0000000000
     24873      8291  TIP3      H2             25.4029194280       58.2506275841       -9.4732963352  W2        8291            0.0000000000
     24874      8292  TIP3      OH2            29.3028194280       57.5457075841       -7.0198363352  W2        8292            0.0000000000
     24875      8292  TIP3      H1             28.6259794280       57.6770175841       -6.3558663352  W2        8292            0.0000000000
     24876      8292  TIP3      H2             28.8173094280       57.3906575841       -7.8300663352  W2        8292            0.0000000000
     24877      8293  TIP3      OH2            21.2195694280       57.2349875841      -11.9785763352  W2        8293            0.0000000000
     24878      8293  TIP3      H1             20.9025194280       56.3325175841      -12.0140363352  W2        8293            0.0000000000
     24879      8293  TIP3      H2             22.0009794280       57.2367275841      -12.5314163352  W2        8293            0.0000000000
     24880      8294  TIP3      OH2            29.2861294280       58.5137475841      -16.0991163352  W2        8294            0.0000000000
     24881      8294  TIP3      H1             28.3475494280       58.6253075841      -16.2502363352  W2        8294            0.0000000000
     24882      8294  TIP3      H2             29.5833394280       59.3704375841      -15.7925463352  W2        8294            0.0000000000
     24883      8295  TIP3      OH2            19.1551994280       58.2087175841       -3.6555963352  W2        8295            0.0000000000
     24884      8295  TIP3      H1             18.2624294280       58.5472575841       -3.7231963352  W2        8295            0.0000000000
     24885      8295  TIP3      H2             19.0564794280       57.3533275841       -3.2375163352  W2        8295            0.0000000000
     24886      8296  TIP3      OH2            27.8895394280       57.9497475841       -4.7657363352  W2        8296            0.0000000000
     24887      8296  TIP3      H1             28.5883294280       58.0236175841       -4.1157663352  W2        8296            0.0000000000
     24888      8296  TIP3      H2             27.5086794280       57.0852475841       -4.6114463352  W2        8296            0.0000000000
     24889      8297  TIP3      OH2            28.6740294280       57.6019175841      -13.6685063352  W2        8297            0.0000000000
     24890      8297  TIP3      H1             28.8938594280       58.0734575841      -14.4719663352  W2        8297            0.0000000000
     24891      8297  TIP3      H2             29.2324294280       57.9961775841      -12.9984463352  W2        8297            0.0000000000
     24892      8298  TIP3      OH2            26.7576894280       56.4110975841      -11.8955563352  W2        8298            0.0000000000
     24893      8298  TIP3      H1             26.4110394280       57.0281575841      -11.2511263352  W2        8298            0.0000000000
     24894      8298  TIP3      H2             27.4163794280       56.9116675841      -12.3770063352  W2        8298            0.0000000000
     24895      8299  TIP3      OH2            22.4153894280       57.4740375841      -15.2083063352  W2        8299            0.0000000000
     24896      8299  TIP3      H1             22.3318694280       58.3623475841      -14.8616663352  W2        8299            0.0000000000
     24897      8299  TIP3      H2             23.3054194280       57.2087075841      -14.9766263352  W2        8299            0.0000000000
     24898      8300  TIP3      OH2            32.6142394280       58.2230975841       -2.8140363352  W2        8300            0.0000000000
     24899      8300  TIP3      H1             31.6978194280       58.4852675841       -2.9016663352  W2        8300            0.0000000000
     24900      8300  TIP3      H2             32.9497394280       58.2199975841       -3.7105063352  W2        8300            0.0000000000
     24901      8301  TIP3      OH2            19.7980394280       55.3472175841       -8.3588163352  W2        8301            0.0000000000
     24902      8301  TIP3      H1             19.5690194280       55.4064675841       -9.2863163352  W2        8301            0.0000000000
     24903      8301  TIP3      H2             19.3553794280       54.5557675841       -8.0524063352  W2        8301            0.0000000000
     24904      8302  TIP3      OH2            23.4553094280       57.6442675841       -4.5447363352  W2        8302            0.0000000000
     24905      8302  TIP3      H1             23.9910594280       58.0959375841       -5.1968063352  W2        8302            0.0000000000
     24906      8302  TIP3      H2             22.6032694280       57.5362475841       -4.9673263352  W2        8302            0.0000000000
     24907      8303  TIP3      OH2            24.2608594280       55.1008375841       -4.1133763352  W2        8303            0.0000000000
     24908      8303  TIP3      H1             24.1628194280       56.0471575841       -4.2187563352  W2        8303            0.0000000000
     24909      8303  TIP3      H2             23.5184794280       54.7282175841       -4.5890263352  W2        8303            0.0000000000
     24910      8304  TIP3      OH2            28.2405694280       58.5497275841       -1.4741863352  W2        8304            0.0000000000
     24911      8304  TIP3      H1             27.2931094280       58.5816975841       -1.3418563352  W2        8304            0.0000000000
     24912      8304  TIP3      H2             28.5532394280       57.9244375841       -0.8203663352  W2        8304            0.0000000000
     24913      8305  TIP3      OH2            29.8747194280       57.1838375841        0.5310036648  W2        8305            0.0000000000
     24914      8305  TIP3      H1             29.7778994280       56.2315675841        0.5251936648  W2        8305            0.0000000000
     24915      8305  TIP3      H2             29.5530294280       57.4525175841        1.3915536648  W2        8305            0.0000000000
     24916      8306  TIP3      OH2            19.7016494280       58.3934175841       -0.4214463352  W2        8306            0.0000000000
     24917      8306  TIP3      H1             19.9133894280       57.6870275841       -1.0316963352  W2        8306            0.0000000000
     24918      8306  TIP3      H2             19.5903994280       57.9560175841        0.4226736648  W2        8306            0.0000000000
     24919      8307  TIP3      OH2            24.4826694280       54.3945775841       -1.4420963352  W2        8307            0.0000000000
     24920      8307  TIP3      H1             25.1945094280       53.7547975841       -1.4561863352  W2        8307            0.0000000000
     24921      8307  TIP3      H2             24.3817094280       54.6614075841       -2.3557863352  W2        8307            0.0000000000
     24922      8308  TIP3      OH2            24.8364194280       56.0774175841        0.6115336648  W2        8308            0.0000000000
     24923      8308  TIP3      H1             24.7046394280       55.6017975841       -0.2086163352  W2        8308            0.0000000000
     24924      8308  TIP3      H2             24.2371594280       56.8217775841        0.5562436648  W2        8308            0.0000000000
     24925      8309  TIP3      OH2            32.5927394280       58.0954375841      -17.9096163352  W2        8309            0.0000000000
     24926      8309  TIP3      H1             33.2033194280       57.7241175841      -17.2727963352  W2        8309            0.0000000000
     24927      8309  TIP3      H2             31.7558894280       57.6741275841      -17.7136163352  W2        8309            0.0000000000
     24928      8310  TIP3      OH2            35.1494894280       54.9485675841        0.6217036648  W2        8310            0.0000000000
     24929      8310  TIP3      H1             35.4991894280       54.2949175841        0.0161736648  W2        8310            0.0000000000
     24930      8310  TIP3      H2             35.2964394280       55.7859775841        0.1819636648  W2        8310            0.0000000000
     24931      8311  TIP3      OH2            32.8387894280       56.9132075841      -12.8954263352  W2        8311            0.0000000000
     24932      8311  TIP3      H1             33.0212894280       56.4643575841      -12.0699263352  W2        8311            0.0000000000
     24933      8311  TIP3      H2             32.2390794280       56.3286475841      -13.3589663352  W2        8311            0.0000000000
     24934      8312  TIP3      OH2            18.3687994280       57.7285775841       -8.3635863352  W2        8312            0.0000000000
     24935      8312  TIP3      H1             18.8139594280       56.9368275841       -8.0616163352  W2        8312            0.0000000000
     24936      8312  TIP3      H2             18.8350994280       58.4450975841       -7.9330263352  W2        8312            0.0000000000
     24937      8313  TIP3      OH2            34.6692094280       57.0580275841       -1.0291663352  W2        8313            0.0000000000
     24938      8313  TIP3      H1             33.7517794280       57.3287375841       -1.0648163352  W2        8313            0.0000000000
     24939      8313  TIP3      H2             34.7921494280       56.5228675841       -1.8131963352  W2        8313            0.0000000000
     24940      8314  TIP3      OH2            34.7054094280       56.9810175841      -16.3673963352  W2        8314            0.0000000000
     24941      8314  TIP3      H1             35.1176694280       56.2595875841      -16.8425963352  W2        8314            0.0000000000
     24942      8314  TIP3      H2             35.3870594280       57.6504775841      -16.3089663352  W2        8314            0.0000000000
     24943      8315  TIP3      OH2            16.9864794280       56.9857875841      -13.2403263352  W2        8315            0.0000000000
     24944      8315  TIP3      H1             16.0613194280       57.1944475841      -13.3697763352  W2        8315            0.0000000000
     24945      8315  TIP3      H2             17.4404694280       57.4698675841      -13.9300963352  W2        8315            0.0000000000
     24946      8316  TIP3      OH2            16.9500194280       55.7236875841       -4.8960763352  W2        8316            0.0000000000
     24947      8316  TIP3      H1             16.2850694280       55.4777175841       -4.2529863352  W2        8316            0.0000000000
     24948      8316  TIP3      H2             16.5071494280       56.3457275841       -5.4732763352  W2        8316            0.0000000000
     24949      8317  TIP3      OH2            33.6697994280       55.1476575841       -3.2100863352  W2        8317            0.0000000000
     24950      8317  TIP3      H1             32.8571494280       55.4726875841       -3.5976163352  W2        8317            0.0000000000
     24951      8317  TIP3      H2             33.9026494280       54.3875075841       -3.7431763352  W2        8317            0.0000000000
     24952      8318  TIP3      OH2            27.0996494280       56.5967175841       -8.8872663352  W2        8318            0.0000000000
     24953      8318  TIP3      H1             26.4253294280       55.9672775841       -8.6316863352  W2        8318            0.0000000000
     24954      8318  TIP3      H2             27.6635694280       56.1126075841       -9.4904763352  W2        8318            0.0000000000
     24955      8319  TIP3      OH2            32.2423694280       54.7041175841       -8.7745563352  W2        8319            0.0000000000
     24956      8319  TIP3      H1             32.8461294280       55.2516575841       -9.2764563352  W2        8319            0.0000000000
     24957      8319  TIP3      H2             31.3725694280       55.0231575841       -9.0151463352  W2        8319            0.0000000000
     24958      8320  TIP3      OH2            33.9694094280       55.8429875841      -10.4414663352  W2        8320            0.0000000000
     24959      8320  TIP3      H1             34.5811594280       55.3285575841      -10.9681063352  W2        8320            0.0000000000
     24960      8320  TIP3      H2             34.3517494280       56.7201975841      -10.4180263352  W2        8320            0.0000000000
     24961      8321  TIP3      OH2            19.4263994280       55.2307475841      -11.0652763352  W2        8321            0.0000000000
     24962      8321  TIP3      H1             18.6493794280       54.9962375841      -11.5726863352  W2        8321            0.0000000000
     24963      8321  TIP3      H2             19.9567594280       54.4339575841      -11.0564763352  W2        8321            0.0000000000
     24964      8322  TIP3      OH2            18.2627394280       55.0285575841      -15.2616663352  W2        8322            0.0000000000
     24965      8322  TIP3      H1             18.7018094280       55.6396075841      -15.8533163352  W2        8322            0.0000000000
     24966      8322  TIP3      H2             17.6289794280       55.5669675841      -14.7876663352  W2        8322            0.0000000000
     24967      8323  TIP3      OH2            24.0056594280       55.1574575841      -11.2519663352  W2        8323            0.0000000000
     24968      8323  TIP3      H1             24.8799994280       55.5458875841      -11.2815363352  W2        8323            0.0000000000
     24969      8323  TIP3      H2             23.8697394280       54.9422375841      -10.3292463352  W2        8323            0.0000000000
     24970      8324  TIP3      OH2            29.5624994280       55.1874375841       -9.6027963352  W2        8324            0.0000000000
     24971      8324  TIP3      H1             29.6386594280       55.2825975841      -10.5521963352  W2        8324            0.0000000000
     24972      8324  TIP3      H2             29.2874194280       54.2797275841       -9.4738863352  W2        8324            0.0000000000
     24973      8325  TIP3      OH2            30.9157594280       55.2132175841      -13.9102963352  W2        8325            0.0000000000
     24974      8325  TIP3      H1             30.2128694280       55.8281375841      -14.1201563352  W2        8325            0.0000000000
     24975      8325  TIP3      H2             30.4708994280       54.3758875841      -13.7792063352  W2        8325            0.0000000000
     24976      8326  TIP3      OH2            20.1236494280       56.9447075841      -16.8192563352  W2        8326            0.0000000000
     24977      8326  TIP3      H1             20.6149894280       56.3149475841      -17.3467063352  W2        8326            0.0000000000
     24978      8326  TIP3      H2             20.7472794280       57.2406475841      -16.1561363352  W2        8326            0.0000000000
     24979      8327  TIP3      OH2            25.1496594280       57.2378575841      -14.3622063352  W2        8327            0.0000000000
     24980      8327  TIP3      H1             25.3277894280       56.5911775841      -13.6793463352  W2        8327            0.0000000000
     24981      8327  TIP3      H2             25.0962794280       58.0716275841      -13.8950963352  W2        8327            0.0000000000
     24982      8328  TIP3      OH2            19.3841994280       55.7449375841       -1.5476563352  W2        8328            0.0000000000
     24983      8328  TIP3      H1             19.0180194280       54.9791975841       -1.1051863352  W2        8328            0.0000000000
     24984      8328  TIP3      H2             20.2970494280       55.7739575841       -1.2611463352  W2        8328            0.0000000000
     24985      8329  TIP3      OH2            21.3572794280       55.0953775841       -0.0119463352  W2        8329            0.0000000000
     24986      8329  TIP3      H1             22.2556394280       54.8213975841       -0.1966063352  W2        8329            0.0000000000
     24987      8329  TIP3      H2             20.9705894280       54.3529775841        0.4523136648  W2        8329            0.0000000000
     24988      8330  TIP3      OH2            29.7785094280       54.4279075841        0.1703336648  W2        8330            0.0000000000
     24989      8330  TIP3      H1             29.8552294280       54.0019775841        1.0241036648  W2        8330            0.0000000000
     24990      8330  TIP3      H2             30.6721694280       54.4413775841       -0.1723163352  W2        8330            0.0000000000
     24991      8331  TIP3      OH2            53.3462094280       57.6757175841       -6.4209863352  W2        8331            0.0000000000
     24992      8331  TIP3      H1             53.3954294280       58.2858375841       -5.6850763352  W2        8331            0.0000000000
     24993      8331  TIP3      H2             53.7717194280       58.1368075841       -7.1438763352  W2        8331            0.0000000000
     24994      8332  TIP3      OH2            40.9787594280       58.5700675841       -9.6816463352  W2        8332            0.0000000000
     24995      8332  TIP3      H1             41.0218694280       59.4299175841      -10.1000163352  W2        8332            0.0000000000
     24996      8332  TIP3      H2             40.5211694280       58.0175375841      -10.3153263352  W2        8332            0.0000000000
     24997      8333  TIP3      OH2            39.7889494280       57.4879075841       -5.6075663352  W2        8333            0.0000000000
     24998      8333  TIP3      H1             39.5701194280       58.0179675841       -6.3739663352  W2        8333            0.0000000000
     24999      8333  TIP3      H2             39.1210394280       57.7144575841       -4.9604263352  W2        8333            0.0000000000
     25000      8334  TIP3      OH2            50.4648694280       57.9915575841       -9.3002263352  W2        8334            0.0000000000
     25001      8334  TIP3      H1             50.2496694280       57.2258975841       -8.7676263352  W2        8334            0.0000000000
     25002      8334  TIP3      H2             51.1206094280       58.4640175841       -8.7873763352  W2        8334            0.0000000000
     25003      8335  TIP3      OH2            50.8122794280       56.7066875841       -5.6208763352  W2        8335            0.0000000000
     25004      8335  TIP3      H1             50.0761994280       57.3173975841       -5.6587463352  W2        8335            0.0000000000
     25005      8335  TIP3      H2             51.4956794280       57.1215875841       -6.1472363352  W2        8335            0.0000000000
     25006      8336  TIP3      OH2            43.8154194280       54.7934175841       -8.1550763352  W2        8336            0.0000000000
     25007      8336  TIP3      H1             43.6978394280       53.8450175841       -8.2092463352  W2        8336            0.0000000000
     25008      8336  TIP3      H2             42.9604294280       55.1260275841       -7.8819663352  W2        8336            0.0000000000
     25009      8337  TIP3      OH2            52.0574694280       54.7526375841      -15.2048163352  W2        8337            0.0000000000
     25010      8337  TIP3      H1             51.1575394280       54.8915375841      -14.9097563352  W2        8337            0.0000000000
     25011      8337  TIP3      H2             52.3093094280       55.5840975841      -15.6066463352  W2        8337            0.0000000000
     25012      8338  TIP3      OH2            41.0841794280       55.6968675841       -7.3774463352  W2        8338            0.0000000000
     25013      8338  TIP3      H1             40.2225494280       55.6096875841       -7.7851563352  W2        8338            0.0000000000
     25014      8338  TIP3      H2             41.0617494280       56.5528775841       -6.9496863352  W2        8338            0.0000000000
     25015      8339  TIP3      OH2            45.7469594280       55.4189075841       -4.0027463352  W2        8339            0.0000000000
     25016      8339  TIP3      H1             46.1672694280       55.0036175841       -3.2496863352  W2        8339            0.0000000000
     25017      8339  TIP3      H2             44.8139194280       55.2402375841       -3.8855463352  W2        8339            0.0000000000
     25018      8340  TIP3      OH2            45.4086894280       57.9112475841      -16.7176663352  W2        8340            0.0000000000
     25019      8340  TIP3      H1             45.1551694280       57.9304075841      -15.7948563352  W2        8340            0.0000000000
     25020      8340  TIP3      H2             45.1518994280       57.0397875841      -17.0190463352  W2        8340            0.0000000000
     25021      8341  TIP3      OH2            42.2909794280       58.3568975841      -17.6166263352  W2        8341            0.0000000000
     25022      8341  TIP3      H1             41.8600494280       57.9119075841      -16.8868863352  W2        8341            0.0000000000
     25023      8341  TIP3      H2             41.5728494280       58.7285275841      -18.1288763352  W2        8341            0.0000000000
     25024      8342  TIP3      OH2            35.5333194280       58.0988475841      -10.5647563352  W2        8342            0.0000000000
     25025      8342  TIP3      H1             36.1640894280       58.0700575841       -9.8453663352  W2        8342            0.0000000000
     25026      8342  TIP3      H2             35.9827494280       57.6737175841      -11.2951663352  W2        8342            0.0000000000
     25027      8343  TIP3      OH2            43.7536294280       58.3110775841      -10.2840163352  W2        8343            0.0000000000
     25028      8343  TIP3      H1             42.8427394280       58.3677575841       -9.9954163352  W2        8343            0.0000000000
     25029      8343  TIP3      H2             44.2589194280       58.2506275841       -9.4732963352  W2        8343            0.0000000000
     25030      8344  TIP3      OH2            48.1588194280       57.5457075841       -7.0198363352  W2        8344            0.0000000000
     25031      8344  TIP3      H1             47.4819794280       57.6770175841       -6.3558663352  W2        8344            0.0000000000
     25032      8344  TIP3      H2             47.6733094280       57.3906575841       -7.8300663352  W2        8344            0.0000000000
     25033      8345  TIP3      OH2            40.0755694280       57.2349875841      -11.9785763352  W2        8345            0.0000000000
     25034      8345  TIP3      H1             39.7585194280       56.3325175841      -12.0140363352  W2        8345            0.0000000000
     25035      8345  TIP3      H2             40.8569794280       57.2367275841      -12.5314163352  W2        8345            0.0000000000
     25036      8346  TIP3      OH2            48.1421294280       58.5137475841      -16.0991163352  W2        8346            0.0000000000
     25037      8346  TIP3      H1             47.2035494280       58.6253075841      -16.2502363352  W2        8346            0.0000000000
     25038      8346  TIP3      H2             48.4393394280       59.3704375841      -15.7925463352  W2        8346            0.0000000000
     25039      8347  TIP3      OH2            38.0111994280       58.2087175841       -3.6555963352  W2        8347            0.0000000000
     25040      8347  TIP3      H1             37.1184294280       58.5472575841       -3.7231963352  W2        8347            0.0000000000
     25041      8347  TIP3      H2             37.9124794280       57.3533275841       -3.2375163352  W2        8347            0.0000000000
     25042      8348  TIP3      OH2            46.7455394280       57.9497475841       -4.7657363352  W2        8348            0.0000000000
     25043      8348  TIP3      H1             47.4443294280       58.0236175841       -4.1157663352  W2        8348            0.0000000000
     25044      8348  TIP3      H2             46.3646794280       57.0852475841       -4.6114463352  W2        8348            0.0000000000
     25045      8349  TIP3      OH2            47.5300294280       57.6019175841      -13.6685063352  W2        8349            0.0000000000
     25046      8349  TIP3      H1             47.7498594280       58.0734575841      -14.4719663352  W2        8349            0.0000000000
     25047      8349  TIP3      H2             48.0884294280       57.9961775841      -12.9984463352  W2        8349            0.0000000000
     25048      8350  TIP3      OH2            45.6136894280       56.4110975841      -11.8955563352  W2        8350            0.0000000000
     25049      8350  TIP3      H1             45.2670394280       57.0281575841      -11.2511263352  W2        8350            0.0000000000
     25050      8350  TIP3      H2             46.2723794280       56.9116675841      -12.3770063352  W2        8350            0.0000000000
     25051      8351  TIP3      OH2            41.2713894280       57.4740375841      -15.2083063352  W2        8351            0.0000000000
     25052      8351  TIP3      H1             41.1878694280       58.3623475841      -14.8616663352  W2        8351            0.0000000000
     25053      8351  TIP3      H2             42.1614194280       57.2087075841      -14.9766263352  W2        8351            0.0000000000
     25054      8352  TIP3      OH2            51.4702394280       58.2230975841       -2.8140363352  W2        8352            0.0000000000
     25055      8352  TIP3      H1             50.5538194280       58.4852675841       -2.9016663352  W2        8352            0.0000000000
     25056      8352  TIP3      H2             51.8057394280       58.2199975841       -3.7105063352  W2        8352            0.0000000000
     25057      8353  TIP3      OH2            38.6540394280       55.3472175841       -8.3588163352  W2        8353            0.0000000000
     25058      8353  TIP3      H1             38.4250194280       55.4064675841       -9.2863163352  W2        8353            0.0000000000
     25059      8353  TIP3      H2             38.2113794280       54.5557675841       -8.0524063352  W2        8353            0.0000000000
     25060      8354  TIP3      OH2            42.3113094280       57.6442675841       -4.5447363352  W2        8354            0.0000000000
     25061      8354  TIP3      H1             42.8470594280       58.0959375841       -5.1968063352  W2        8354            0.0000000000
     25062      8354  TIP3      H2             41.4592694280       57.5362475841       -4.9673263352  W2        8354            0.0000000000
     25063      8355  TIP3      OH2            43.1168594280       55.1008375841       -4.1133763352  W2        8355            0.0000000000
     25064      8355  TIP3      H1             43.0188194280       56.0471575841       -4.2187563352  W2        8355            0.0000000000
     25065      8355  TIP3      H2             42.3744794280       54.7282175841       -4.5890263352  W2        8355            0.0000000000
     25066      8356  TIP3      OH2            47.0965694280       58.5497275841       -1.4741863352  W2        8356            0.0000000000
     25067      8356  TIP3      H1             46.1491094280       58.5816975841       -1.3418563352  W2        8356            0.0000000000
     25068      8356  TIP3      H2             47.4092394280       57.9244375841       -0.8203663352  W2        8356            0.0000000000
     25069      8357  TIP3      OH2            48.7307194280       57.1838375841        0.5310036648  W2        8357            0.0000000000
     25070      8357  TIP3      H1             48.6338994280       56.2315675841        0.5251936648  W2        8357            0.0000000000
     25071      8357  TIP3      H2             48.4090294280       57.4525175841        1.3915536648  W2        8357            0.0000000000
     25072      8358  TIP3      OH2            38.5576494280       58.3934175841       -0.4214463352  W2        8358            0.0000000000
     25073      8358  TIP3      H1             38.7693894280       57.6870275841       -1.0316963352  W2        8358            0.0000000000
     25074      8358  TIP3      H2             38.4463994280       57.9560175841        0.4226736648  W2        8358            0.0000000000
     25075      8359  TIP3      OH2            43.3386694280       54.3945775841       -1.4420963352  W2        8359            0.0000000000
     25076      8359  TIP3      H1             44.0505094280       53.7547975841       -1.4561863352  W2        8359            0.0000000000
     25077      8359  TIP3      H2             43.2377094280       54.6614075841       -2.3557863352  W2        8359            0.0000000000
     25078      8360  TIP3      OH2            43.6924194280       56.0774175841        0.6115336648  W2        8360            0.0000000000
     25079      8360  TIP3      H1             43.5606394280       55.6017975841       -0.2086163352  W2        8360            0.0000000000
     25080      8360  TIP3      H2             43.0931594280       56.8217775841        0.5562436648  W2        8360            0.0000000000
     25081      8361  TIP3      OH2            51.4487394280       58.0954375841      -17.9096163352  W2        8361            0.0000000000
     25082      8361  TIP3      H1             52.0593194280       57.7241175841      -17.2727963352  W2        8361            0.0000000000
     25083      8361  TIP3      H2             50.6118894280       57.6741275841      -17.7136163352  W2        8361            0.0000000000
     25084      8362  TIP3      OH2            54.0054894280       54.9485675841        0.6217036648  W2        8362            0.0000000000
     25085      8362  TIP3      H1             54.3551894280       54.2949175841        0.0161736648  W2        8362            0.0000000000
     25086      8362  TIP3      H2             54.1524394280       55.7859775841        0.1819636648  W2        8362            0.0000000000
     25087      8363  TIP3      OH2            51.6947894280       56.9132075841      -12.8954263352  W2        8363            0.0000000000
     25088      8363  TIP3      H1             51.8772894280       56.4643575841      -12.0699263352  W2        8363            0.0000000000
     25089      8363  TIP3      H2             51.0950794280       56.3286475841      -13.3589663352  W2        8363            0.0000000000
     25090      8364  TIP3      OH2            37.2247994280       57.7285775841       -8.3635863352  W2        8364            0.0000000000
     25091      8364  TIP3      H1             37.6699594280       56.9368275841       -8.0616163352  W2        8364            0.0000000000
     25092      8364  TIP3      H2             37.6910994280       58.4450975841       -7.9330263352  W2        8364            0.0000000000
     25093      8365  TIP3      OH2            53.5252094280       57.0580275841       -1.0291663352  W2        8365            0.0000000000
     25094      8365  TIP3      H1             52.6077794280       57.3287375841       -1.0648163352  W2        8365            0.0000000000
     25095      8365  TIP3      H2             53.6481494280       56.5228675841       -1.8131963352  W2        8365            0.0000000000
     25096      8366  TIP3      OH2            53.5614094280       56.9810175841      -16.3673963352  W2        8366            0.0000000000
     25097      8366  TIP3      H1             53.9736694280       56.2595875841      -16.8425963352  W2        8366            0.0000000000
     25098      8366  TIP3      H2             54.2430594280       57.6504775841      -16.3089663352  W2        8366            0.0000000000
     25099      8367  TIP3      OH2            35.8424794280       56.9857875841      -13.2403263352  W2        8367            0.0000000000
     25100      8367  TIP3      H1             34.9173194280       57.1944475841      -13.3697763352  W2        8367            0.0000000000
     25101      8367  TIP3      H2             36.2964694280       57.4698675841      -13.9300963352  W2        8367            0.0000000000
     25102      8368  TIP3      OH2            35.8060194280       55.7236875841       -4.8960763352  W2        8368            0.0000000000
     25103      8368  TIP3      H1             35.1410694280       55.4777175841       -4.2529863352  W2        8368            0.0000000000
     25104      8368  TIP3      H2             35.3631494280       56.3457275841       -5.4732763352  W2        8368            0.0000000000
     25105      8369  TIP3      OH2            52.5257994280       55.1476575841       -3.2100863352  W2        8369            0.0000000000
     25106      8369  TIP3      H1             51.7131494280       55.4726875841       -3.5976163352  W2        8369            0.0000000000
     25107      8369  TIP3      H2             52.7586494280       54.3875075841       -3.7431763352  W2        8369            0.0000000000
     25108      8370  TIP3      OH2            45.9556494280       56.5967175841       -8.8872663352  W2        8370            0.0000000000
     25109      8370  TIP3      H1             45.2813294280       55.9672775841       -8.6316863352  W2        8370            0.0000000000
     25110      8370  TIP3      H2             46.5195694280       56.1126075841       -9.4904763352  W2        8370            0.0000000000
     25111      8371  TIP3      OH2            51.0983694280       54.7041175841       -8.7745563352  W2        8371            0.0000000000
     25112      8371  TIP3      H1             51.7021294280       55.2516575841       -9.2764563352  W2        8371            0.0000000000
     25113      8371  TIP3      H2             50.2285694280       55.0231575841       -9.0151463352  W2        8371            0.0000000000
     25114      8372  TIP3      OH2            52.8254094280       55.8429875841      -10.4414663352  W2        8372            0.0000000000
     25115      8372  TIP3      H1             53.4371594280       55.3285575841      -10.9681063352  W2        8372            0.0000000000
     25116      8372  TIP3      H2             53.2077494280       56.7201975841      -10.4180263352  W2        8372            0.0000000000
     25117      8373  TIP3      OH2            38.2823994280       55.2307475841      -11.0652763352  W2        8373            0.0000000000
     25118      8373  TIP3      H1             37.5053794280       54.9962375841      -11.5726863352  W2        8373            0.0000000000
     25119      8373  TIP3      H2             38.8127594280       54.4339575841      -11.0564763352  W2        8373            0.0000000000
     25120      8374  TIP3      OH2            37.1187394280       55.0285575841      -15.2616663352  W2        8374            0.0000000000
     25121      8374  TIP3      H1             37.5578094280       55.6396075841      -15.8533163352  W2        8374            0.0000000000
     25122      8374  TIP3      H2             36.4849794280       55.5669675841      -14.7876663352  W2        8374            0.0000000000
     25123      8375  TIP3      OH2            42.8616594280       55.1574575841      -11.2519663352  W2        8375            0.0000000000
     25124      8375  TIP3      H1             43.7359994280       55.5458875841      -11.2815363352  W2        8375            0.0000000000
     25125      8375  TIP3      H2             42.7257394280       54.9422375841      -10.3292463352  W2        8375            0.0000000000
     25126      8376  TIP3      OH2            48.4184994280       55.1874375841       -9.6027963352  W2        8376            0.0000000000
     25127      8376  TIP3      H1             48.4946594280       55.2825975841      -10.5521963352  W2        8376            0.0000000000
     25128      8376  TIP3      H2             48.1434194280       54.2797275841       -9.4738863352  W2        8376            0.0000000000
     25129      8377  TIP3      OH2            49.7717594280       55.2132175841      -13.9102963352  W2        8377            0.0000000000
     25130      8377  TIP3      H1             49.0688694280       55.8281375841      -14.1201563352  W2        8377            0.0000000000
     25131      8377  TIP3      H2             49.3268994280       54.3758875841      -13.7792063352  W2        8377            0.0000000000
     25132      8378  TIP3      OH2            38.9796494280       56.9447075841      -16.8192563352  W2        8378            0.0000000000
     25133      8378  TIP3      H1             39.4709894280       56.3149475841      -17.3467063352  W2        8378            0.0000000000
     25134      8378  TIP3      H2             39.6032794280       57.2406475841      -16.1561363352  W2        8378            0.0000000000
     25135      8379  TIP3      OH2            44.0056594280       57.2378575841      -14.3622063352  W2        8379            0.0000000000
     25136      8379  TIP3      H1             44.1837894280       56.5911775841      -13.6793463352  W2        8379            0.0000000000
     25137      8379  TIP3      H2             43.9522794280       58.0716275841      -13.8950963352  W2        8379            0.0000000000
     25138      8380  TIP3      OH2            38.2401994280       55.7449375841       -1.5476563352  W2        8380            0.0000000000
     25139      8380  TIP3      H1             37.8740194280       54.9791975841       -1.1051863352  W2        8380            0.0000000000
     25140      8380  TIP3      H2             39.1530494280       55.7739575841       -1.2611463352  W2        8380            0.0000000000
     25141      8381  TIP3      OH2            40.2132794280       55.0953775841       -0.0119463352  W2        8381            0.0000000000
     25142      8381  TIP3      H1             41.1116394280       54.8213975841       -0.1966063352  W2        8381            0.0000000000
     25143      8381  TIP3      H2             39.8265894280       54.3529775841        0.4523136648  W2        8381            0.0000000000
     25144      8382  TIP3      OH2            48.6345094280       54.4279075841        0.1703336648  W2        8382            0.0000000000
     25145      8382  TIP3      H1             48.7112294280       54.0019775841        1.0241036648  W2        8382            0.0000000000
     25146      8382  TIP3      H2             49.5281694280       54.4413775841       -0.1723163352  W2        8382            0.0000000000
     25147      8383  TIP3      OH2            54.3893194280       58.0988475841      -10.5647563352  W2        8383            0.0000000000
     25148      8383  TIP3      H1             55.0200894280       58.0700575841       -9.8453663352  W2        8383            0.0000000000
     25149      8383  TIP3      H2             54.8387494280       57.6737175841      -11.2951663352  W2        8383            0.0000000000
     25150      8384  TIP3      OH2            56.8671994280       58.2087175841       -3.6555963352  W2        8384            0.0000000000
     25151      8384  TIP3      H1             55.9744294280       58.5472575841       -3.7231963352  W2        8384            0.0000000000
     25152      8384  TIP3      H2             56.7684794280       57.3533275841       -3.2375163352  W2        8384            0.0000000000
     25153      8385  TIP3      OH2            57.5100394280       55.3472175841       -8.3588163352  W2        8385            0.0000000000
     25154      8385  TIP3      H1             57.2810194280       55.4064675841       -9.2863163352  W2        8385            0.0000000000
     25155      8385  TIP3      H2             57.0673794280       54.5557675841       -8.0524063352  W2        8385            0.0000000000
     25156      8386  TIP3      OH2            57.4136494280       58.3934175841       -0.4214463352  W2        8386            0.0000000000
     25157      8386  TIP3      H1             57.6253894280       57.6870275841       -1.0316963352  W2        8386            0.0000000000
     25158      8386  TIP3      H2             57.3023994280       57.9560175841        0.4226736648  W2        8386            0.0000000000
     25159      8387  TIP3      OH2            56.0807994280       57.7285775841       -8.3635863352  W2        8387            0.0000000000
     25160      8387  TIP3      H1             56.5259594280       56.9368275841       -8.0616163352  W2        8387            0.0000000000
     25161      8387  TIP3      H2             56.5470994280       58.4450975841       -7.9330263352  W2        8387            0.0000000000
     25162      8388  TIP3      OH2            54.6984794280       56.9857875841      -13.2403263352  W2        8388            0.0000000000
     25163      8388  TIP3      H1             53.7733194280       57.1944475841      -13.3697763352  W2        8388            0.0000000000
     25164      8388  TIP3      H2             55.1524694280       57.4698675841      -13.9300963352  W2        8388            0.0000000000
     25165      8389  TIP3      OH2            54.6620194280       55.7236875841       -4.8960763352  W2        8389            0.0000000000
     25166      8389  TIP3      H1             53.9970694280       55.4777175841       -4.2529863352  W2        8389            0.0000000000
     25167      8389  TIP3      H2             54.2191494280       56.3457275841       -5.4732763352  W2        8389            0.0000000000
     25168      8390  TIP3      OH2            57.1383994280       55.2307475841      -11.0652763352  W2        8390            0.0000000000
     25169      8390  TIP3      H1             56.3613794280       54.9962375841      -11.5726863352  W2        8390            0.0000000000
     25170      8390  TIP3      H2             57.6687594280       54.4339575841      -11.0564763352  W2        8390            0.0000000000
     25171      8391  TIP3      OH2            55.9747394280       55.0285575841      -15.2616663352  W2        8391            0.0000000000
     25172      8391  TIP3      H1             56.4138094280       55.6396075841      -15.8533163352  W2        8391            0.0000000000
     25173      8391  TIP3      H2             55.3409794280       55.5669675841      -14.7876663352  W2        8391            0.0000000000
     25174      8392  TIP3      OH2            57.8356494280       56.9447075841      -16.8192563352  W2        8392            0.0000000000
     25175      8392  TIP3      H1             58.3269894280       56.3149475841      -17.3467063352  W2        8392            0.0000000000
     25176      8392  TIP3      H2             58.4592794280       57.2406475841      -16.1561363352  W2        8392            0.0000000000
     25177      8393  TIP3      OH2            57.0961994280       55.7449375841       -1.5476563352  W2        8393            0.0000000000
     25178      8393  TIP3      H1             56.7300194280       54.9791975841       -1.1051863352  W2        8393            0.0000000000
     25179      8393  TIP3      H2             58.0090494280       55.7739575841       -1.2611463352  W2        8393            0.0000000000
     25180      8394  TIP3      OH2           -46.9193405720      -48.7490224159        7.7494736648  W2        8394            0.0000000000
     25181      8394  TIP3      H1            -46.8302305720      -47.8052024159        7.6171836648  W2        8394            0.0000000000
     25182      8394  TIP3      H2            -47.5575805720      -49.0243824159        7.0914136648  W2        8394            0.0000000000
     25183      8395  TIP3      OH2           -47.9862105720      -49.4939524159       11.1682936648  W2        8395            0.0000000000
     25184      8395  TIP3      H1            -48.0244605720      -50.1403224159       11.8732536648  W2        8395            0.0000000000
     25185      8395  TIP3      H2            -48.3085605720      -49.9605124159       10.3971636648  W2        8395            0.0000000000
     25186      8396  TIP3      OH2           -55.6177105720      -49.8797424159       12.7612836648  W2        8396            0.0000000000
     25187      8396  TIP3      H1            -55.5765005720      -50.5054124159       13.4845236648  W2        8396            0.0000000000
     25188      8396  TIP3      H2            -54.9149405720      -49.2558824159       12.9433236648  W2        8396            0.0000000000
     25189      8397  TIP3      OH2           -44.2801905720      -46.5549124159        9.4698036648  W2        8397            0.0000000000
     25190      8397  TIP3      H1            -44.7209205720      -47.2753124159        9.9203636648  W2        8397            0.0000000000
     25191      8397  TIP3      H2            -44.2932205720      -45.8341924159       10.0995736648  W2        8397            0.0000000000
     25192      8398  TIP3      OH2           -54.6944005720      -45.4298524159       11.2961936648  W2        8398            0.0000000000
     25193      8398  TIP3      H1            -55.0638805720      -46.2318024159       10.9266236648  W2        8398            0.0000000000
     25194      8398  TIP3      H2            -53.7532905720      -45.5983624159       11.3425336648  W2        8398            0.0000000000
     25195      8399  TIP3      OH2           -58.0843505720      -51.7695924159        6.6890736648  W2        8399            0.0000000000
     25196      8399  TIP3      H1            -58.5320105720      -50.9237224159        6.6707236648  W2        8399            0.0000000000
     25197      8399  TIP3      H2            -58.6452305720      -52.3491724159        6.1735836648  W2        8399            0.0000000000
     25198      8400  TIP3      OH2           -57.3737405720      -49.6076324159        8.8148736648  W2        8400            0.0000000000
     25199      8400  TIP3      H1            -57.1603905720      -50.3774724159        9.3421736648  W2        8400            0.0000000000
     25200      8400  TIP3      H2            -56.6359805720      -49.5179624159        8.2116336648  W2        8400            0.0000000000
     25201      8401  TIP3      OH2           -47.1686405720      -41.4507424159        9.6818436648  W2        8401            0.0000000000
     25202      8401  TIP3      H1            -46.5490005720      -42.1272724159        9.4087636648  W2        8401            0.0000000000
     25203      8401  TIP3      H2            -47.3769005720      -41.6686624159       10.5903336648  W2        8401            0.0000000000
     25204      8402  TIP3      OH2           -49.5967705720      -47.0618124159       11.5743936648  W2        8402            0.0000000000
     25205      8402  TIP3      H1            -49.2929805720      -47.7476724159       10.9798036648  W2        8402            0.0000000000
     25206      8402  TIP3      H2            -48.8753705720      -46.9429424159       12.1921936648  W2        8402            0.0000000000
     25207      8403  TIP3      OH2           -40.9337905720      -55.4602824159       12.4350136648  W2        8403            0.0000000000
     25208      8403  TIP3      H1            -40.8845705720      -54.8501624159       13.1709236648  W2        8403            0.0000000000
     25209      8403  TIP3      H2            -40.5082805720      -54.9991924159       11.7121236648  W2        8403            0.0000000000
     25210      8404  TIP3      OH2           -46.4560705720      -52.6675724159       11.9018736648  W2        8404            0.0000000000
     25211      8404  TIP3      H1            -46.3134805720      -53.6138724159       11.9220336648  W2        8404            0.0000000000
     25212      8404  TIP3      H2            -46.5621705720      -52.4605924159       10.9733636648  W2        8404            0.0000000000
     25213      8405  TIP3      OH2           -53.3012405720      -54.5659324159        9.1743536648  W2        8405            0.0000000000
     25214      8405  TIP3      H1            -53.2581305720      -53.7060824159        8.7559836648  W2        8405            0.0000000000
     25215      8405  TIP3      H2            -53.7588305720      -55.1184624159        8.5406736648  W2        8405            0.0000000000
     25216      8406  TIP3      OH2           -45.5789705720      -54.4353724159        7.5751836648  W2        8406            0.0000000000
     25217      8406  TIP3      H1            -44.9325405720      -54.7640524159        8.1999436648  W2        8406            0.0000000000
     25218      8406  TIP3      H2            -45.0690305720      -53.9174724159        6.9523236648  W2        8406            0.0000000000
     25219      8407  TIP3      OH2           -56.6810905720      -52.1693524159        9.9364936648  W2        8407            0.0000000000
     25220      8407  TIP3      H1            -56.0274305720      -52.7191824159       10.3685036648  W2        8407            0.0000000000
     25221      8407  TIP3      H2            -56.6571605720      -52.4434524159        9.0196936648  W2        8407            0.0000000000
     25222      8408  TIP3      OH2           -51.5246405720      -50.6192224159        9.1516436648  W2        8408            0.0000000000
     25223      8408  TIP3      H1            -50.9085405720      -51.1456824159        9.6610436648  W2        8408            0.0000000000
     25224      8408  TIP3      H2            -52.1107605720      -51.2593524159        8.7480036648  W2        8408            0.0000000000
     25225      8409  TIP3      OH2           -40.5423305720      -53.9823624159       14.6709936648  W2        8409            0.0000000000
     25226      8409  TIP3      H1            -41.2308705720      -53.3242924159       14.5756536648  W2        8409            0.0000000000
     25227      8409  TIP3      H2            -40.5268705720      -54.1795724159       15.6075336648  W2        8409            0.0000000000
     25228      8410  TIP3      OH2           -54.4910505720      -55.6480924159       13.2484336648  W2        8410            0.0000000000
     25229      8410  TIP3      H1            -54.7098805720      -55.1180324159       12.4820336648  W2        8410            0.0000000000
     25230      8410  TIP3      H2            -55.1589605720      -55.4215424159       13.8955736648  W2        8410            0.0000000000
     25231      8411  TIP3      OH2           -47.1220705720      -46.1479824159        6.7923436648  W2        8411            0.0000000000
     25232      8411  TIP3      H1            -47.4175605720      -46.4707524159        5.9410336648  W2        8411            0.0000000000
     25233      8411  TIP3      H2            -47.4462905720      -45.2483124159        6.8336036648  W2        8411            0.0000000000
     25234      8412  TIP3      OH2           -51.9219105720      -47.9725224159       13.5358036648  W2        8412            0.0000000000
     25235      8412  TIP3      H1            -52.6620005720      -47.3743724159       13.6393236648  W2        8412            0.0000000000
     25236      8412  TIP3      H2            -51.2079605720      -47.4185624159       13.2201636648  W2        8412            0.0000000000
     25237      8413  TIP3      OH2           -43.8151305720      -55.1444424159        9.5557736648  W2        8413            0.0000000000
     25238      8413  TIP3      H1            -44.0303305720      -55.9101024159       10.0883736648  W2        8413            0.0000000000
     25239      8413  TIP3      H2            -43.1593905720      -54.6719824159       10.0686236648  W2        8413            0.0000000000
     25240      8414  TIP3      OH2           -54.8973205720      -53.7559124159       11.2006536648  W2        8414            0.0000000000
     25241      8414  TIP3      H1            -54.2836905720      -53.1231524159       11.5738936648  W2        8414            0.0000000000
     25242      8414  TIP3      H2            -54.3852505720      -54.2284124159       10.5443436648  W2        8414            0.0000000000
     25243      8415  TIP3      OH2           -53.5144805720      -46.0082224159       14.3229536648  W2        8415            0.0000000000
     25244      8415  TIP3      H1            -53.5197205720      -45.1288724159       13.9448836648  W2        8415            0.0000000000
     25245      8415  TIP3      H2            -54.3680705720      -46.0918124159       14.7479436648  W2        8415            0.0000000000
     25246      8416  TIP3      OH2           -57.3933905720      -46.3374324159        5.1048836648  W2        8416            0.0000000000
     25247      8416  TIP3      H1            -57.6653005720      -46.1083324159        4.2161736648  W2        8416            0.0000000000
     25248      8416  TIP3      H2            -57.3478205720      -45.4995524159        5.5654136648  W2        8416            0.0000000000
     25249      8417  TIP3      OH2           -43.7684205720      -44.7158424159       11.8177336648  W2        8417            0.0000000000
     25250      8417  TIP3      H1            -44.7100505720      -44.6574524159       11.9794236648  W2        8417            0.0000000000
     25251      8417  TIP3      H2            -43.4918105720      -43.8097924159       11.6807036648  W2        8417            0.0000000000
     25252      8418  TIP3      OH2           -43.4677205720      -56.4293124159       13.2351236648  W2        8418            0.0000000000
     25253      8418  TIP3      H1            -44.2038005720      -55.8186024159       13.1972536648  W2        8418            0.0000000000
     25254      8418  TIP3      H2            -42.7843205720      -56.0144124159       12.7087636648  W2        8418            0.0000000000
     25255      8419  TIP3      OH2           -50.4645805720      -58.3425824159       10.7009236648  W2        8419            0.0000000000
     25256      8419  TIP3      H1            -50.5821605720      -59.2909824159       10.6467536648  W2        8419            0.0000000000
     25257      8419  TIP3      H2            -51.3195705720      -58.0099724159       10.9740336648  W2        8419            0.0000000000
     25258      8420  TIP3      OH2           -45.5163005720      -42.9344924159        8.4428936648  W2        8420            0.0000000000
     25259      8420  TIP3      H1            -45.0910705720      -43.6417024159        7.9578536648  W2        8420            0.0000000000
     25260      8420  TIP3      H2            -45.1993005720      -42.1332224159        8.0261136648  W2        8420            0.0000000000
     25261      8421  TIP3      OH2           -44.3566505720      -45.0336424159        6.9515536648  W2        8421            0.0000000000
     25262      8421  TIP3      H1            -44.6141705720      -45.7236324159        6.3401436648  W2        8421            0.0000000000
     25263      8421  TIP3      H2            -44.2855705720      -45.4765224159        7.7971436648  W2        8421            0.0000000000
     25264      8422  TIP3      OH2           -42.6706305720      -46.4669724159       15.4289036648  W2        8422            0.0000000000
     25265      8422  TIP3      H1            -42.5310005720      -47.0587224159       14.6896036648  W2        8422            0.0000000000
     25266      8422  TIP3      H2            -42.5033505720      -45.5943824159       15.0727836648  W2        8422            0.0000000000
     25267      8423  TIP3      OH2           -48.1980905720      -49.5050224159        5.2015036648  W2        8423            0.0000000000
     25268      8423  TIP3      H1            -48.9095405720      -48.9700524159        4.8495536648  W2        8423            0.0000000000
     25269      8423  TIP3      H2            -47.5071305720      -49.4498124159        4.5413936648  W2        8423            0.0000000000
     25270      8424  TIP3      OH2           -48.1441705720      -51.0475924159        2.2400036648  W2        8424            0.0000000000
     25271      8424  TIP3      H1            -47.4431805720      -51.0249024159        2.8914036648  W2        8424            0.0000000000
     25272      8424  TIP3      H2            -47.8418805720      -51.6756224159        1.5839336648  W2        8424            0.0000000000
     25273      8425  TIP3      OH2           -40.8287005720      -50.1271724159       13.4949436648  W2        8425            0.0000000000
     25274      8425  TIP3      H1            -41.4812905720      -49.4326124159       13.5840336648  W2        8425            0.0000000000
     25275      8425  TIP3      H2            -40.3636705720      -49.9170824159       12.6851036648  W2        8425            0.0000000000
     25276      8426  TIP3      OH2           -44.7923205720      -49.2956924159        6.1530936648  W2        8426            0.0000000000
     25277      8426  TIP3      H1            -45.5242205720      -49.0673224159        6.7261536648  W2        8426            0.0000000000
     25278      8426  TIP3      H2            -44.3451005720      -50.0094224159        6.6078436648  W2        8426            0.0000000000
     25279      8427  TIP3      OH2           -44.8949705720      -51.1214324159       15.2207936648  W2        8427            0.0000000000
     25280      8427  TIP3      H1            -44.8150605720      -50.3579924159       15.7926436648  W2        8427            0.0000000000
     25281      8427  TIP3      H2            -45.4962005720      -50.8421924159       14.5303036648  W2        8427            0.0000000000
     25282      8428  TIP3      OH2           -53.1469505720      -48.6650724159        8.0355936648  W2        8428            0.0000000000
     25283      8428  TIP3      H1            -53.4774305720      -49.0357324159        7.2172936648  W2        8428            0.0000000000
     25284      8428  TIP3      H2            -52.5585405720      -49.3356724159        8.3824236648  W2        8428            0.0000000000
     25285      8429  TIP3      OH2           -51.7802005720      -45.2370124159       10.7168136648  W2        8429            0.0000000000
     25286      8429  TIP3      H1            -51.8750705720      -45.8157024159        9.9602736648  W2        8429            0.0000000000
     25287      8429  TIP3      H2            -51.0508405720      -45.6084424159       11.2130936648  W2        8429            0.0000000000
     25288      8430  TIP3      OH2           -52.7804005720      -49.8965124159       11.6690936648  W2        8430            0.0000000000
     25289      8430  TIP3      H1            -52.2151505720      -49.7750924159       10.9062136648  W2        8430            0.0000000000
     25290      8430  TIP3      H2            -52.4615105720      -49.2590124159       12.3079436648  W2        8430            0.0000000000
     25291      8431  TIP3      OH2           -46.4711805720      -44.3933224159       12.4031436648  W2        8431            0.0000000000
     25292      8431  TIP3      H1            -46.7115205720      -43.7310124159       13.0510636648  W2        8431            0.0000000000
     25293      8431  TIP3      H2            -46.6693605720      -45.2278024159       12.8281036648  W2        8431            0.0000000000
     25294      8432  TIP3      OH2           -51.9003305720      -45.4972424159       16.3862836648  W2        8432            0.0000000000
     25295      8432  TIP3      H1            -52.2115805720      -44.7149224159       16.8416036648  W2        8432            0.0000000000
     25296      8432  TIP3      H2            -52.5503105720      -45.6503324159       15.7004836648  W2        8432            0.0000000000
     25297      8433  TIP3      OH2           -45.9213705720      -50.1334024159        3.8382136648  W2        8433            0.0000000000
     25298      8433  TIP3      H1            -45.3418205720      -49.9833724159        4.5851036648  W2        8433            0.0000000000
     25299      8433  TIP3      H2            -45.5073705720      -49.6626624159        3.1148536648  W2        8433            0.0000000000
     25300      8434  TIP3      OH2           -54.9803405720      -49.2991324159       15.6148536648  W2        8434            0.0000000000
     25301      8434  TIP3      H1            -54.9100205720      -48.6484524159       16.3133536648  W2        8434            0.0000000000
     25302      8434  TIP3      H2            -55.8711205720      -49.1963824159       15.2799436648  W2        8434            0.0000000000
     25303      8435  TIP3      OH2           -48.1948805720      -43.3965524159        7.2735236648  W2        8435            0.0000000000
     25304      8435  TIP3      H1            -47.7211205720      -43.1009224159        8.0509436648  W2        8435            0.0000000000
     25305      8435  TIP3      H2            -48.7579505720      -42.6583924159        7.0404836648  W2        8435            0.0000000000
     25306      8436  TIP3      OH2           -53.6607405720      -43.4257424159       17.1496636648  W2        8436            0.0000000000
     25307      8436  TIP3      H1            -53.6532105720      -43.5617724159       16.2022136648  W2        8436            0.0000000000
     25308      8436  TIP3      H2            -54.5767005720      -43.5429324159       17.4016636648  W2        8436            0.0000000000
     25309      8437  TIP3      OH2           -42.2225305720      -58.3833624159        3.6511836648  W2        8437            0.0000000000
     25310      8437  TIP3      H1            -43.1224605720      -58.2444624159        3.9462436648  W2        8437            0.0000000000
     25311      8437  TIP3      H2            -41.9706905720      -57.5519024159        3.2493536648  W2        8437            0.0000000000
     25312      8438  TIP3      OH2           -54.1566805720      -49.5956424159        5.6248736648  W2        8438            0.0000000000
     25313      8438  TIP3      H1            -54.4485505720      -48.8274724159        5.1340036648  W2        8438            0.0000000000
     25314      8438  TIP3      H2            -54.8311605720      -50.2550224159        5.4620136648  W2        8438            0.0000000000
     25315      8439  TIP3      OH2           -41.0333905720      -44.0171224159        2.0275736648  W2        8439            0.0000000000
     25316      8439  TIP3      H1            -40.9600405720      -43.0781024159        2.1981036648  W2        8439            0.0000000000
     25317      8439  TIP3      H2            -40.1278805720      -44.3222624159        1.9713036648  W2        8439            0.0000000000
     25318      8440  TIP3      OH2           -58.0636705720      -47.2327224159       14.4398536648  W2        8440            0.0000000000
     25319      8440  TIP3      H1            -58.5648305720      -47.2607824159       13.6248236648  W2        8440            0.0000000000
     25320      8440  TIP3      H2            -58.0583005720      -48.1384024159       14.7495836648  W2        8440            0.0000000000
     25321      8441  TIP3      OH2           -58.3134005720      -44.4523424159       11.3238736648  W2        8441            0.0000000000
     25322      8441  TIP3      H1            -57.3673405720      -44.5966424159       11.3048236648  W2        8441            0.0000000000
     25323      8441  TIP3      H2            -58.4257705720      -43.6680624159       11.8609936648  W2        8441            0.0000000000
     25324      8442  TIP3      OH2           -40.1155505720      -43.7863724159       17.0062436648  W2        8442            0.0000000000
     25325      8442  TIP3      H1            -40.1648705720      -44.7415624159       16.9690036648  W2        8442            0.0000000000
     25326      8442  TIP3      H2            -40.9423205720      -43.5188424159       17.4076236648  W2        8442            0.0000000000
     25327      8443  TIP3      OH2           -49.1371505720      -44.2124524159       15.8823836648  W2        8443            0.0000000000
     25328      8443  TIP3      H1            -49.0496905720      -43.3859924159       16.3572936648  W2        8443            0.0000000000
     25329      8443  TIP3      H2            -50.0006405720      -44.5420724159       16.1313136648  W2        8443            0.0000000000
     25330      8444  TIP3      OH2           -48.7225705720      -40.4400824159        5.6884436648  W2        8444            0.0000000000
     25331      8444  TIP3      H1            -48.7979705720      -40.5613624159        4.7419636648  W2        8444            0.0000000000
     25332      8444  TIP3      H2            -48.6897005720      -39.4908124159        5.8069036648  W2        8444            0.0000000000
     25333      8445  TIP3      OH2           -55.0691905720      -41.6513824159        7.4693436648  W2        8445            0.0000000000
     25334      8445  TIP3      H1            -54.9171505720      -41.9993424159        8.3479936648  W2        8445            0.0000000000
     25335      8445  TIP3      H2            -55.9201505720      -42.0076524159        7.2140636648  W2        8445            0.0000000000
     25336      8446  TIP3      OH2           -45.6209705720      -41.2860624159        2.6906836648  W2        8446            0.0000000000
     25337      8446  TIP3      H1            -45.2461305720      -42.0304524159        2.2199436648  W2        8446            0.0000000000
     25338      8446  TIP3      H2            -45.6166005720      -41.5560024159        3.6090136648  W2        8446            0.0000000000
     25339      8447  TIP3      OH2           -45.9521605720      -41.3603524159        5.4399036648  W2        8447            0.0000000000
     25340      8447  TIP3      H1            -46.8871805720      -41.2601624159        5.6186036648  W2        8447            0.0000000000
     25341      8447  TIP3      H2            -45.6719705720      -42.0697524159        6.0182236648  W2        8447            0.0000000000
     25342      8448  TIP3      OH2           -42.9635705720      -52.2931224159       17.4864636648  W2        8448            0.0000000000
     25343      8448  TIP3      H1            -43.3708905720      -51.8125624159       16.7657936648  W2        8448            0.0000000000
     25344      8448  TIP3      H2            -42.9230005720      -53.1985224159       17.1785436648  W2        8448            0.0000000000
     25345      8449  TIP3      OH2           -55.8146205720      -45.9091824159       15.4831336648  W2        8449            0.0000000000
     25346      8449  TIP3      H1            -55.5984905720      -46.2706224159       16.3427136648  W2        8449            0.0000000000
     25347      8449  TIP3      H2            -56.6701505720      -46.2838024159       15.2734836648  W2        8449            0.0000000000
     25348      8450  TIP3      OH2           -53.1958205720      -57.4391324159       11.4785536648  W2        8450            0.0000000000
     25349      8450  TIP3      H1            -54.0574505720      -57.5263124159       11.0708436648  W2        8450            0.0000000000
     25350      8450  TIP3      H2            -53.2182505720      -56.5831224159       11.9063136648  W2        8450            0.0000000000
     25351      8451  TIP3      OH2           -48.5330405720      -57.7170924159       14.8532536648  W2        8451            0.0000000000
     25352      8451  TIP3      H1            -48.1127305720      -58.1323824159       15.6063136648  W2        8451            0.0000000000
     25353      8451  TIP3      H2            -49.4660805720      -57.8957624159       14.9704536648  W2        8451            0.0000000000
     25354      8452  TIP3      OH2           -45.2065505720      -53.9615724159       15.7067036648  W2        8452            0.0000000000
     25355      8452  TIP3      H1            -45.7206005720      -54.0873524159       16.5043036648  W2        8452            0.0000000000
     25356      8452  TIP3      H2            -45.3620805720      -53.0492624159       15.4623236648  W2        8452            0.0000000000
     25357      8453  TIP3      OH2           -44.4440605720      -49.1005724159        1.4680036648  W2        8453            0.0000000000
     25358      8453  TIP3      H1            -44.4019805720      -49.3231824159        0.5380036648  W2        8453            0.0000000000
     25359      8453  TIP3      H2            -43.5948505720      -48.7018624159        1.6579936648  W2        8453            0.0000000000
     25360      8454  TIP3      OH2           -48.8713105720      -55.2247524159        2.1383336648  W2        8454            0.0000000000
     25361      8454  TIP3      H1            -49.1248305720      -55.2055924159        3.0611436648  W2        8454            0.0000000000
     25362      8454  TIP3      H2            -49.1281005720      -56.0962124159        1.8369536648  W2        8454            0.0000000000
     25363      8455  TIP3      OH2           -53.1048105720      -52.4736824159       12.5735736648  W2        8455            0.0000000000
     25364      8455  TIP3      H1            -53.7466005720      -52.5139524159       13.2825836648  W2        8455            0.0000000000
     25365      8455  TIP3      H2            -53.0676105720      -51.5472124159       12.3358736648  W2        8455            0.0000000000
     25366      8456  TIP3      OH2           -53.1079005720      -52.2526724159        7.4855736648  W2        8456            0.0000000000
     25367      8456  TIP3      H1            -54.0006105720      -52.5930624159        7.4269536648  W2        8456            0.0000000000
     25368      8456  TIP3      H2            -52.6572405720      -52.6295824159        6.7298936648  W2        8456            0.0000000000
     25369      8457  TIP3      OH2           -47.5723505720      -51.8366424159        6.3026536648  W2        8457            0.0000000000
     25370      8457  TIP3      H1            -47.9813205720      -51.0217824159        6.0111336648  W2        8457            0.0000000000
     25371      8457  TIP3      H2            -46.8517305720      -51.9766324159        5.6883636648  W2        8457            0.0000000000
     25372      8458  TIP3      OH2           -48.4701905720      -51.6610024159       17.7907236648  W2        8458            0.0000000000
     25373      8458  TIP3      H1            -49.0328105720      -52.3658424159       18.1115036648  W2        8458            0.0000000000
     25374      8458  TIP3      H2            -47.6438505720      -51.7818124159       18.2584836648  W2        8458            0.0000000000
     25375      8459  TIP3      OH2           -46.5675805720      -52.3906024159        9.1166236648  W2        8459            0.0000000000
     25376      8459  TIP3      H1            -46.7631305720      -51.7849224159        8.4016836648  W2        8459            0.0000000000
     25377      8459  TIP3      H2            -46.3863205720      -53.2240824159        8.6822536648  W2        8459            0.0000000000
     25378      8460  TIP3      OH2           -55.3547605720      -52.1533324159       14.4407736648  W2        8460            0.0000000000
     25379      8460  TIP3      H1            -55.3928205720      -51.7531724159       15.3094836648  W2        8460            0.0000000000
     25380      8460  TIP3      H2            -55.8456505720      -52.9700924159       14.5310636648  W2        8460            0.0000000000
     25381      8461  TIP3      OH2           -51.9890205720      -54.7791024159        1.2393736648  W2        8461            0.0000000000
     25382      8461  TIP3      H1            -52.4199505720      -55.2240924159        1.9691136648  W2        8461            0.0000000000
     25383      8461  TIP3      H2            -52.7071505720      -54.4074724159        0.7271236648  W2        8461            0.0000000000
     25384      8462  TIP3      OH2           -58.7466805720      -55.0371524159        8.2912436648  W2        8462            0.0000000000
     25385      8462  TIP3      H1            -58.1159105720      -55.0659424159        9.0106336648  W2        8462            0.0000000000
     25386      8462  TIP3      H2            -58.2972505720      -55.4622824159        7.5608336648  W2        8462            0.0000000000
     25387      8463  TIP3      OH2           -57.4724705720      -54.2909524159        3.7152836648  W2        8463            0.0000000000
     25388      8463  TIP3      H1            -56.9983005720      -53.6999624159        3.1303736648  W2        8463            0.0000000000
     25389      8463  TIP3      H2            -58.1898305720      -53.7606624159        4.0622936648  W2        8463            0.0000000000
     25390      8464  TIP3      OH2           -47.3036605720      -50.7524724159       13.7878636648  W2        8464            0.0000000000
     25391      8464  TIP3      H1            -46.9801805720      -51.3835024159       13.1449136648  W2        8464            0.0000000000
     25392      8464  TIP3      H2            -47.7437305720      -51.2872524159       14.4486036648  W2        8464            0.0000000000
     25393      8465  TIP3      OH2           -50.5263705720      -54.8249224159        8.5719836648  W2        8465            0.0000000000
     25394      8465  TIP3      H1            -51.4372605720      -54.7682424159        8.8605836648  W2        8465            0.0000000000
     25395      8465  TIP3      H2            -50.0210805720      -54.8853724159        9.3827036648  W2        8465            0.0000000000
     25396      8466  TIP3      OH2           -55.6980305720      -53.1962924159        7.3987436648  W2        8466            0.0000000000
     25397      8466  TIP3      H1            -56.5872305720      -53.0967424159        7.0587036648  W2        8466            0.0000000000
     25398      8466  TIP3      H2            -55.4015405720      -54.0379924159        7.0525336648  W2        8466            0.0000000000
     25399      8467  TIP3      OH2           -52.0448505720      -53.1960324159        5.0552036648  W2        8467            0.0000000000
     25400      8467  TIP3      H1            -51.1133005720      -53.0670324159        5.2335136648  W2        8467            0.0000000000
     25401      8467  TIP3      H2            -52.2598205720      -52.5266024159        4.4056736648  W2        8467            0.0000000000
     25402      8468  TIP3      OH2           -46.1211805720      -55.5902924159       11.8361636648  W2        8468            0.0000000000
     25403      8468  TIP3      H1            -46.7980205720      -55.4589824159       12.5001336648  W2        8468            0.0000000000
     25404      8468  TIP3      H2            -46.6066905720      -55.7453424159       11.0259336648  W2        8468            0.0000000000
     25405      8469  TIP3      OH2           -53.3708305720      -52.0018124159        2.6218136648  W2        8469            0.0000000000
     25406      8469  TIP3      H1            -53.9133205720      -52.3814324159        1.9305736648  W2        8469            0.0000000000
     25407      8469  TIP3      H2            -52.5373405720      -51.8073424159        2.1932236648  W2        8469            0.0000000000
     25408      8470  TIP3      OH2           -55.2356905720      -47.4446224159       17.7209736648  W2        8471            0.0000000000
     25409      8470  TIP3      H1            -54.5034505720      -47.1900324159       18.2824236648  W2        8471            0.0000000000
     25410      8470  TIP3      H2            -56.0158205720      -47.2400824159       18.2365136648  W2        8471            0.0000000000
     25411      8471  TIP3      OH2           -49.2064005720      -52.0376224159       10.4589436648  W2        8472            0.0000000000
     25412      8471  TIP3      H1            -48.6420605720      -52.5839624159        9.9119036648  W2        8472            0.0000000000
     25413      8471  TIP3      H2            -49.3540605720      -52.5594324159       11.2477036648  W2        8472            0.0000000000
     25414      8472  TIP3      OH2           -54.2044305720      -55.9010124159        6.8774236648  W2        8473            0.0000000000
     25415      8472  TIP3      H1            -54.5214805720      -56.8034824159        6.8419636648  W2        8473            0.0000000000
     25416      8472  TIP3      H2            -53.4230205720      -55.8992724159        6.3245836648  W2        8473            0.0000000000
     25417      8473  TIP3      OH2           -50.5798105720      -53.6490124159       12.8729836648  W2        8474            0.0000000000
     25418      8473  TIP3      H1            -51.4152805720      -53.1950624159       12.9832236648  W2        8474            0.0000000000
     25419      8473  TIP3      H2            -50.0557505720      -53.3731624159       13.6249736648  W2        8474            0.0000000000
     25420      8474  TIP3      OH2           -50.0355505720      -47.4362424159        4.5576236648  W2        8475            0.0000000000
     25421      8474  TIP3      H1            -50.7804505720      -47.9437124159        4.2354136648  W2        8475            0.0000000000
     25422      8474  TIP3      H2            -50.1698305720      -47.3874424159        5.5041036648  W2        8475            0.0000000000
     25423      8475  TIP3      OH2           -42.8856605720      -48.3034224159       13.3443836648  W2        8476            0.0000000000
     25424      8475  TIP3      H1            -42.2437805720      -47.8467924159       12.8006036648  W2        8476            0.0000000000
     25425      8475  TIP3      H2            -43.7159705720      -48.1901824159       12.8817936648  W2        8476            0.0000000000
     25426      8476  TIP3      OH2           -46.1378705720      -54.6222524159        2.7568836648  W2        8477            0.0000000000
     25427      8476  TIP3      H1            -47.0764505720      -54.5106924159        2.6057636648  W2        8477            0.0000000000
     25428      8476  TIP3      H2            -45.8406605720      -53.7655624159        3.0634536648  W2        8477            0.0000000000
     25429      8477  TIP3      OH2           -48.5163405720      -47.2519124159       15.7945336648  W2        8478            0.0000000000
     25430      8477  TIP3      H1            -48.8617305720      -47.6336724159       16.6014936648  W2        8478            0.0000000000
     25431      8477  TIP3      H2            -48.7163305720      -46.3185524159       15.8658236648  W2        8478            0.0000000000
     25432      8478  TIP3      OH2           -45.4195205720      -52.7549824159        4.4176236648  W2        8479            0.0000000000
     25433      8478  TIP3      H1            -44.5276205720      -52.8924824159        4.7367436648  W2        8479            0.0000000000
     25434      8478  TIP3      H2            -45.3631605720      -51.9643724159        3.8809736648  W2        8479            0.0000000000
     25435      8479  TIP3      OH2           -54.9107205720      -48.1412424159       10.3274136648  W2        8480            0.0000000000
     25436      8479  TIP3      H1            -54.1660005720      -48.1436724159        9.7260636648  W2        8480            0.0000000000
     25437      8479  TIP3      H2            -54.8330605720      -48.9648624159       10.8089236648  W2        8480            0.0000000000
     25438      8480  TIP3      OH2           -47.9101405720      -45.9778124159        3.5830836648  W2        8481            0.0000000000
     25439      8480  TIP3      H1            -48.2053005720      -45.1510224159        3.9645636648  W2        8481            0.0000000000
     25440      8480  TIP3      H2            -48.6131405720      -46.5971224159        3.7792236648  W2        8481            0.0000000000
     25441      8481  TIP3      OH2           -57.9027505720      -49.6805524159       15.6422636648  W2        8482            0.0000000000
     25442      8481  TIP3      H1            -57.6798905720      -50.0985924159       16.4740136648  W2        8482            0.0000000000
     25443      8481  TIP3      H2            -58.5047405720      -50.2930524159       15.2195436648  W2        8482            0.0000000000
     25444      8482  TIP3      OH2           -46.2659805720      -44.7903624159       15.7450336648  W2        8484            0.0000000000
     25445      8482  TIP3      H1            -47.1665505720      -44.6071024159       15.4774236648  W2        8484            0.0000000000
     25446      8482  TIP3      H2            -46.2318705720      -44.5314324159       16.6659136648  W2        8484            0.0000000000
     25447      8483  TIP3      OH2           -40.5346505720      -52.5455724159        4.1122936648  W2        8485            0.0000000000
     25448      8483  TIP3      H1            -41.0890205720      -52.9417724159        3.4400436648  W2        8485            0.0000000000
     25449      8483  TIP3      H2            -40.4342905720      -51.6350524159        3.8346236648  W2        8485            0.0000000000
     25450      8484  TIP3      OH2           -40.5714505720      -46.7454024159       16.9494436648  W2        8486            0.0000000000
     25451      8484  TIP3      H1            -41.4226005720      -46.5070224159       16.5820836648  W2        8486            0.0000000000
     25452      8484  TIP3      H2            -39.9811105720      -46.7620824159       16.1961536648  W2        8486            0.0000000000
     25453      8485  TIP3      OH2           -42.2394805720      -43.7595324159        4.5775036648  W2        8487            0.0000000000
     25454      8485  TIP3      H1            -42.6123705720      -44.5851524159        4.8865636648  W2        8487            0.0000000000
     25455      8485  TIP3      H2            -41.9621305720      -43.9425924159        3.6798436648  W2        8487            0.0000000000
     25456      8486  TIP3      OH2           -45.0790905720      -48.9515824159       11.5986936648  W2        8488            0.0000000000
     25457      8486  TIP3      H1            -46.0074005720      -49.1833924159       11.5716236648  W2        8488            0.0000000000
     25458      8486  TIP3      H2            -44.6279805720      -49.7286024159       11.2685736648  W2        8488            0.0000000000
     25459      8487  TIP3      OH2           -52.5357805720      -44.6234224159        7.7315636648  W2        8489            0.0000000000
     25460      8487  TIP3      H1            -52.0085605720      -43.8499824159        7.5314436648  W2        8489            0.0000000000
     25461      8487  TIP3      H2            -53.4159305720      -44.3985024159        7.4299636648  W2        8489            0.0000000000
     25462      8488  TIP3      OH2           -56.7810105720      -49.7610124159        2.3188036648  W2        8490            0.0000000000
     25463      8488  TIP3      H1            -56.1650205720      -49.1342924159        2.6982836648  W2        8490            0.0000000000
     25464      8488  TIP3      H2            -57.6427505720      -49.4450324159        2.5904536648  W2        8490            0.0000000000
     25465      8489  TIP3      OH2           -51.1085505720      -46.9604324159        7.3079936648  W2        8491            0.0000000000
     25466      8489  TIP3      H1            -51.3495505720      -46.0349924159        7.3495236648  W2        8491            0.0000000000
     25467      8489  TIP3      H2            -51.8491905720      -47.4193024159        7.7043836648  W2        8491            0.0000000000
     25468      8490  TIP3      OH2           -50.5938905720      -42.8110724159       13.6231036648  W2        8492            0.0000000000
     25469      8490  TIP3      H1            -50.2314205720      -41.9565124159       13.3895436648  W2        8492            0.0000000000
     25470      8490  TIP3      H2            -50.0623705720      -43.1029124159       14.3637336648  W2        8492            0.0000000000
     25471      8491  TIP3      OH2           -52.4254705720      -41.9386724159        6.8532136648  W2        8493            0.0000000000
     25472      8491  TIP3      H1            -53.3754205720      -41.8329324159        6.9045436648  W2        8493            0.0000000000
     25473      8491  TIP3      H2            -52.0736605720      -41.1179324159        7.1979636648  W2        8493            0.0000000000
     25474      8492  TIP3      OH2           -47.0498105720      -46.7120024159       13.3236636648  W2        8494            0.0000000000
     25475      8492  TIP3      H1            -47.4756805720      -46.9398324159       14.1500636648  W2        8494            0.0000000000
     25476      8492  TIP3      H2            -46.4692305720      -47.4508224159       13.1411936648  W2        8494            0.0000000000
     25477      8493  TIP3      OH2           -44.8469205720      -45.7829524159        2.3975636648  W2        8495            0.0000000000
     25478      8493  TIP3      H1            -44.4936105720      -46.1629724159        3.2019136648  W2        8495            0.0000000000
     25479      8493  TIP3      H2            -45.7955705720      -45.8764724159        2.4844936648  W2        8495            0.0000000000
     25480      8494  TIP3      OH2           -44.3913905720      -42.1600524159       15.7931436648  W2        8496            0.0000000000
     25481      8494  TIP3      H1            -44.9930705720      -42.7157624159       15.2977736648  W2        8496            0.0000000000
     25482      8494  TIP3      H2            -44.1100205720      -41.4930724159       15.1668836648  W2        8496            0.0000000000
     25483      8495  TIP3      OH2           -40.3434805720      -41.3037024159        2.5985836648  W2        8497            0.0000000000
     25484      8495  TIP3      H1            -39.5996905720      -40.7176524159        2.4587436648  W2        8497            0.0000000000
     25485      8495  TIP3      H2            -41.0376705720      -40.7351224159        2.9318236648  W2        8497            0.0000000000
     25486      8496  TIP3      OH2           -56.2688005720      -54.9272824159       15.2004036648  W2        8498            0.0000000000
     25487      8496  TIP3      H1            -57.1615705720      -54.5887424159       15.1328036648  W2        8498            0.0000000000
     25488      8496  TIP3      H2            -56.3675205720      -55.7826724159       15.6184836648  W2        8498            0.0000000000
     25489      8497  TIP3      OH2           -43.9809905720      -47.1107524159        4.6243536648  W2        8499            0.0000000000
     25490      8497  TIP3      H1            -44.2582305720      -47.8388224159        5.1804636648  W2        8499            0.0000000000
     25491      8497  TIP3      H2            -43.0536905720      -46.9915524159        4.8296136648  W2        8499            0.0000000000
     25492      8498  TIP3      OH2           -56.6176005720      -43.1228424159       13.6353436648  W2        8500            0.0000000000
     25493      8498  TIP3      H1            -56.4005705720      -44.0546024159       13.6043136648  W2        8500            0.0000000000
     25494      8498  TIP3      H2            -56.3712505720      -42.8483424159       14.5186236648  W2        8500            0.0000000000
     25495      8499  TIP3      OH2           -50.7561405720      -44.6713424159        0.8445636648  W2        8501            0.0000000000
     25496      8499  TIP3      H1            -50.5171605720      -45.4195324159        0.2974536648  W2        8501            0.0000000000
     25497      8499  TIP3      H2            -51.0250105720      -45.0591724159        1.6773436648  W2        8501            0.0000000000
     25498      8500  TIP3      OH2           -51.8190805720      -45.1009624159        3.3008236648  W2        8502            0.0000000000
     25499      8500  TIP3      H1            -51.6722805720      -45.6209824159        4.0909136648  W2        8502            0.0000000000
     25500      8500  TIP3      H2            -51.8219105720      -44.1942024159        3.6074136648  W2        8502            0.0000000000
     25501      8501  TIP3      OH2           -55.3659705720      -47.8486324159        3.8113636648  W2        8503            0.0000000000
     25502      8501  TIP3      H1            -56.0520405720      -47.4963824159        4.3783336648  W2        8503            0.0000000000
     25503      8501  TIP3      H2            -54.8431805720      -47.0856724159        3.5647936648  W2        8503            0.0000000000
     25504      8502  TIP3      OH2           -47.5344605720      -55.1862524159       14.0902636648  W2        8504            0.0000000000
     25505      8502  TIP3      H1            -46.8356705720      -55.1123824159       14.7402336648  W2        8504            0.0000000000
     25506      8502  TIP3      H2            -47.9153205720      -56.0507524159       14.2445536648  W2        8504            0.0000000000
     25507      8503  TIP3      OH2           -46.7499705720      -55.5340824159        5.1874936648  W2        8505            0.0000000000
     25508      8503  TIP3      H1            -46.5301405720      -55.0625424159        4.3840336648  W2        8505            0.0000000000
     25509      8503  TIP3      H2            -46.1915705720      -55.1398224159        5.8575536648  W2        8505            0.0000000000
     25510      8504  TIP3      OH2           -49.0813605720      -43.4036024159        4.0502436648  W2        8506            0.0000000000
     25511      8504  TIP3      H1            -49.8977505720      -42.9066324159        4.1026736648  W2        8506            0.0000000000
     25512      8504  TIP3      H2            -48.5517305720      -42.9282524159        3.4101236648  W2        8506            0.0000000000
     25513      8505  TIP3      OH2           -49.5499805720      -53.8062024159        6.0223336648  W2        8507            0.0000000000
     25514      8505  TIP3      H1            -48.7377205720      -53.3018824159        6.0685036648  W2        8507            0.0000000000
     25515      8505  TIP3      H2            -49.7946805720      -53.9512324159        6.9362936648  W2        8507            0.0000000000
     25516      8506  TIP3      OH2           -49.0143405720      -52.8199324159       15.2069936648  W2        8508            0.0000000000
     25517      8506  TIP3      H1            -48.8953105720      -52.2463924159       15.9640336648  W2        8508            0.0000000000
     25518      8506  TIP3      H2            -48.3588805720      -53.5079924159       15.3217736648  W2        8508            0.0000000000
     25519      8507  TIP3      OH2           -48.6663105720      -56.7249024159        6.9604436648  W2        8509            0.0000000000
     25520      8507  TIP3      H1            -49.0129605720      -56.1078424159        7.6048736648  W2        8509            0.0000000000
     25521      8507  TIP3      H2            -48.0076205720      -56.2243324159        6.4789936648  W2        8509            0.0000000000
     25522      8508  TIP3      OH2           -51.7430505720      -42.3598824159        4.0319336648  W2        8510            0.0000000000
     25523      8508  TIP3      H1            -51.5821805720      -41.5601324159        3.5311936648  W2        8510            0.0000000000
     25524      8508  TIP3      H2            -51.9402705720      -42.0532824159        4.9169936648  W2        8510            0.0000000000
     25525      8509  TIP3      OH2           -53.0086105720      -55.6619624159        3.6476936648  W2        8511            0.0000000000
     25526      8509  TIP3      H1            -53.0921305720      -54.7736524159        3.9943336648  W2        8511            0.0000000000
     25527      8509  TIP3      H2            -52.1185805720      -55.9272924159        3.8793736648  W2        8511            0.0000000000
     25528      8510  TIP3      OH2           -42.8097605720      -54.9129024159       16.0419636648  W2        8512            0.0000000000
     25529      8510  TIP3      H1            -43.7261805720      -54.6507324159       15.9543336648  W2        8512            0.0000000000
     25530      8510  TIP3      H2            -42.4742605720      -54.9160024159       15.1454936648  W2        8512            0.0000000000
     25531      8511  TIP3      OH2           -44.2076605720      -51.1628024159       10.1376936648  W2        8513            0.0000000000
     25532      8511  TIP3      H1            -45.0052205720      -51.5777824159        9.8091936648  W2        8513            0.0000000000
     25533      8511  TIP3      H2            -43.7625505720      -51.8534324159       10.6287436648  W2        8513            0.0000000000
     25534      8512  TIP3      OH2           -54.7500805720      -45.2347424159        2.7081436648  W2        8514            0.0000000000
     25535      8512  TIP3      H1            -54.1579305720      -44.5352624159        2.9843836648  W2        8514            0.0000000000
     25536      8512  TIP3      H2            -54.2907805720      -45.6677924159        1.9886036648  W2        8514            0.0000000000
     25537      8513  TIP3      OH2           -56.4341605720      -52.5704424159        1.8240836648  W2        8515            0.0000000000
     25538      8513  TIP3      H1            -56.4789005720      -51.6311324159        2.0027836648  W2        8515            0.0000000000
     25539      8513  TIP3      H2            -57.3218405720      -52.8059524159        1.5542936648  W2        8515            0.0000000000
     25540      8514  TIP3      OH2           -43.1212005720      -41.9065524159       11.7600436648  W2        8516            0.0000000000
     25541      8514  TIP3      H1            -43.2767705720      -41.2281124159       11.1029736648  W2        8516            0.0000000000
     25542      8514  TIP3      H2            -42.1885605720      -41.8346224159       11.9631036648  W2        8516            0.0000000000
     25543      8515  TIP3      OH2           -55.6259605720      -57.7887824159       10.4971836648  W2        8517            0.0000000000
     25544      8515  TIP3      H1            -55.8549805720      -57.7295324159        9.5696836648  W2        8517            0.0000000000
     25545      8515  TIP3      H2            -56.0686205720      -58.5802324159       10.8035936648  W2        8517            0.0000000000
     25546      8516  TIP3      OH2           -56.6956305720      -43.8480724159        6.6577636648  W2        8518            0.0000000000
     25547      8516  TIP3      H1            -57.5277705720      -43.3758024159        6.6849036648  W2        8518            0.0000000000
     25548      8516  TIP3      H2            -56.1498005720      -43.3383124159        6.0590736648  W2        8518            0.0000000000
     25549      8517  TIP3      OH2           -48.7179605720      -42.8082024159        0.9831636648  W2        8521            0.0000000000
     25550      8517  TIP3      H1            -49.3618605720      -43.4393424159        1.3045336648  W2        8521            0.0000000000
     25551      8517  TIP3      H2            -47.9561305720      -43.3394024159        0.7515136648  W2        8521            0.0000000000
     25552      8518  TIP3      OH2           -44.1136705720      -42.9912124159        1.2169636648  W2        8523            0.0000000000
     25553      8518  TIP3      H1            -43.8306305720      -43.7856924159        1.6696536648  W2        8523            0.0000000000
     25554      8518  TIP3      H2            -43.3738805720      -42.7581124159        0.6560736648  W2        8523            0.0000000000
     25555      8519  TIP3      OH2           -53.1589405720      -47.0817224159        1.0744536648  W2        8525            0.0000000000
     25556      8519  TIP3      H1            -53.0945305720      -47.8757624159        1.6050936648  W2        8525            0.0000000000
     25557      8519  TIP3      H2            -52.5060205720      -47.2004424159        0.3846536648  W2        8525            0.0000000000
     25558      8520  TIP3      OH2           -47.8066005720      -46.0345524159        0.8102536648  W2        8527            0.0000000000
     25559      8520  TIP3      H1            -48.0751905720      -45.8543424159        1.7111436648  W2        8527            0.0000000000
     25560      8520  TIP3      H2            -48.0130405720      -46.9599324159        0.6788336648  W2        8527            0.0000000000
     25561      8521  TIP3      OH2           -45.1101805720      -47.5397524159       15.7578636648  W2        8528            0.0000000000
     25562      8521  TIP3      H1            -44.3647005720      -46.9513824159       15.6382636648  W2        8528            0.0000000000
     25563      8521  TIP3      H2            -45.8675005720      -46.9577824159       15.8211736648  W2        8528            0.0000000000
     25564      8522  TIP3      OH2           -52.0095605720      -49.1091024159        3.3802536648  W2        8530            0.0000000000
     25565      8522  TIP3      H1            -52.4693605720      -49.5932724159        4.0661036648  W2        8530            0.0000000000
     25566      8522  TIP3      H2            -51.7546905720      -49.7775624159        2.7443036648  W2        8530            0.0000000000
     25567      8523  TIP3      OH2           -52.7206305720      -51.2163924159       15.7362136648  W2        8531            0.0000000000
     25568      8523  TIP3      H1            -53.3390205720      -50.5417324159       16.0166836648  W2        8531            0.0000000000
     25569      8523  TIP3      H2            -52.3765105720      -50.8950024159       14.9028336648  W2        8531            0.0000000000
     25570      8524  TIP3      OH2           -50.9385205720      -50.8659224159        1.6425736648  W2        8532            0.0000000000
     25571      8524  TIP3      H1            -51.1190205720      -51.0208024159        0.7154036648  W2        8532            0.0000000000
     25572      8524  TIP3      H2            -49.9884705720      -50.7580524159        1.6873636648  W2        8532            0.0000000000
     25573      8525  TIP3      OH2           -41.5486905720      -48.5115024159        1.0883836648  W2        8534            0.0000000000
     25574      8525  TIP3      H1            -41.8222105720      -48.9359524159        0.2752136648  W2        8534            0.0000000000
     25575      8525  TIP3      H2            -41.5092805720      -47.5800524159        0.8714236648  W2        8534            0.0000000000
     25576      8526  TIP3      OH2           -52.3812605720      -53.8613124159       16.8185236648  W2        8535            0.0000000000
     25577      8526  TIP3      H1            -52.2311705720      -54.5901824159       16.2164936648  W2        8535            0.0000000000
     25578      8526  TIP3      H2            -52.3790205720      -53.0841424159       16.2597436648  W2        8535            0.0000000000
     25579      8527  TIP3      OH2           -51.9686905720      -55.4917324159       14.3112636648  W2        8536            0.0000000000
     25580      8527  TIP3      H1            -51.4329405720      -55.0400624159       13.6591936648  W2        8536            0.0000000000
     25581      8527  TIP3      H2            -52.8207305720      -55.5997524159       13.8886736648  W2        8536            0.0000000000
     25582      8528  TIP3      OH2           -50.3868505720      -50.0521124159       14.5507836648  W2        8537            0.0000000000
     25583      8528  TIP3      H1            -49.6363705720      -50.2083624159       13.9775636648  W2        8537            0.0000000000
     25584      8528  TIP3      H2            -50.7260205720      -49.2004524159       14.2753336648  W2        8537            0.0000000000
     25585      8529  TIP3      OH2           -44.6545105720      -49.4484124159       17.6565836648  W2        8539            0.0000000000
     25586      8529  TIP3      H1            -44.9360105720      -48.7389524159       17.0789636648  W2        8539            0.0000000000
     25587      8529  TIP3      H2            -43.7120805720      -49.5211124159       17.5057036648  W2        8539            0.0000000000
     25588      8530  TIP3      OH2           -51.1631405720      -58.0351624159       14.7426236648  W2        8541            0.0000000000
     25589      8530  TIP3      H1            -51.2611805720      -57.0888424159       14.6372436648  W2        8541            0.0000000000
     25590      8530  TIP3      H2            -51.9055205720      -58.4077824159       14.2669736648  W2        8541            0.0000000000
     25591      8531  TIP3      OH2           -47.1834305720      -54.5862724159       17.3818136648  W2        8543            0.0000000000
     25592      8531  TIP3      H1            -48.1308905720      -54.5543024159       17.5141436648  W2        8543            0.0000000000
     25593      8531  TIP3      H2            -46.8707605720      -55.2115624159       18.0356336648  W2        8543            0.0000000000
     25594      8532  TIP3      OH2           -50.9413305720      -58.7414224159       17.4139036648  W2        8546            0.0000000000
     25595      8532  TIP3      H1            -50.2294905720      -59.3812024159       17.3998136648  W2        8546            0.0000000000
     25596      8532  TIP3      H2            -51.0422905720      -58.4745924159       16.5002136648  W2        8546            0.0000000000
     25597      8533  TIP3      OH2           -51.0413505720      -40.1755524159        2.6439336648  W2        8548            0.0000000000
     25598      8533  TIP3      H1            -50.1082805720      -40.0176824159        2.7877736648  W2        8548            0.0000000000
     25599      8533  TIP3      H2            -51.3054705720      -39.5002524159        2.0190836648  W2        8548            0.0000000000
     25600      8534  TIP3      OH2           -57.4728605720      -45.5391724159        2.1267436648  W2        8549            0.0000000000
     25601      8534  TIP3      H1            -56.5589405720      -45.4602824159        2.4001336648  W2        8549            0.0000000000
     25602      8534  TIP3      H2            -57.4655505720      -46.2262124159        1.4603036648  W2        8549            0.0000000000
     25603      8535  TIP3      OH2           -58.8238005720      -40.1463224159        7.2041336648  W2        8550            0.0000000000
     25604      8535  TIP3      H1            -59.4710905720      -40.6081524159        6.6712536648  W2        8550            0.0000000000
     25605      8535  TIP3      H2            -58.4693405720      -40.8179924159        7.7867536648  W2        8550            0.0000000000
     25606      8536  TIP3      OH2           -57.9538805720      -42.0656224159        9.0087536648  W2        8551            0.0000000000
     25607      8536  TIP3      H1            -58.2882005720      -42.9458924159        9.1807736648  W2        8551            0.0000000000
     25608      8536  TIP3      H2            -57.7316405720      -41.7201224159        9.8733136648  W2        8551            0.0000000000
     25609      8537  TIP3      OH2           -40.4054005720      -41.2559824159       11.9892336648  W2        8552            0.0000000000
     25610      8537  TIP3      H1            -40.4267305720      -41.0711424159       12.9281736648  W2        8552            0.0000000000
     25611      8537  TIP3      H2            -39.7147805720      -40.6875824159       11.6483736648  W2        8552            0.0000000000
     25612      8538  TIP3      OH2           -40.8421105720      -41.6888724159       14.9111436648  W2        8553            0.0000000000
     25613      8538  TIP3      H1            -41.3292405720      -42.4244624159       14.5398836648  W2        8553            0.0000000000
     25614      8538  TIP3      H2            -40.2928405720      -42.0824824159       15.5890836648  W2        8553            0.0000000000
     25615      8539  TIP3      OH2           -41.0904105720      -47.6426924159        5.0634236648  W2        8555            0.0000000000
     25616      8539  TIP3      H1            -40.2402705720      -47.2216024159        5.1905836648  W2        8555            0.0000000000
     25617      8539  TIP3      H2            -41.0849005720      -48.3826824159        5.6705636648  W2        8555            0.0000000000
     25618      8540  TIP3      OH2           -40.6958505720      -49.5889524159        6.8869936648  W2        8556            0.0000000000
     25619      8540  TIP3      H1            -41.4223905720      -50.0686924159        7.2847536648  W2        8556            0.0000000000
     25620      8540  TIP3      H2            -40.1145205720      -49.3834824159        7.6191536648  W2        8556            0.0000000000
     25621      8541  TIP3      OH2           -40.9367305720      -46.8042024159       11.8347536648  W2        8557            0.0000000000
     25622      8541  TIP3      H1            -40.1033105720      -47.1822024159       11.5541136648  W2        8557            0.0000000000
     25623      8541  TIP3      H2            -40.8247005720      -45.8610824159       11.7156636648  W2        8557            0.0000000000
     25624      8542  TIP3      OH2           -42.4505005720      -43.9264524159       14.1415936648  W2        8558            0.0000000000
     25625      8542  TIP3      H1            -43.0979705720      -43.6013024159       14.7671136648  W2        8558            0.0000000000
     25626      8542  TIP3      H2            -42.9681005720      -44.3666824159       13.4674236648  W2        8558            0.0000000000
     25627      8543  TIP3      OH2           -40.4275405720      -49.6881024159        3.2781236648  W2        8559            0.0000000000
     25628      8543  TIP3      H1            -40.9494305720      -49.3316924159        2.5592136648  W2        8559            0.0000000000
     25629      8543  TIP3      H2            -40.4606205720      -49.0133224159        3.9562136648  W2        8559            0.0000000000
     25630      8544  TIP3      OH2           -42.0786405720      -52.4485424159        1.8288336648  W2        8560            0.0000000000
     25631      8544  TIP3      H1            -41.9822005720      -51.7818424159        1.1488036648  W2        8560            0.0000000000
     25632      8544  TIP3      H2            -42.2186805720      -53.2639124159        1.3473836648  W2        8560            0.0000000000
     25633      8545  TIP3      OH2           -42.9091705720      -51.0683024159        7.4498636648  W2        8561            0.0000000000
     25634      8545  TIP3      H1            -43.0592905720      -52.0134424159        7.4296436648  W2        8561            0.0000000000
     25635      8545  TIP3      H2            -43.2627205720      -50.7871624159        8.2937736648  W2        8561            0.0000000000
     25636      8546  TIP3      OH2           -57.8739305720      -48.9900824159       11.4602436648  W2        8562            0.0000000000
     25637      8546  TIP3      H1            -57.6896405720      -49.0719124159       10.5245336648  W2        8562            0.0000000000
     25638      8546  TIP3      H2            -57.0246405720      -49.1143824159       11.8838836648  W2        8562            0.0000000000
     25639      8547  TIP3      OH2           -42.0528805720      -49.0979724159       17.0886936648  W2        8563            0.0000000000
     25640      8547  TIP3      H1            -41.4701505720      -49.8327424159       17.2804136648  W2        8563            0.0000000000
     25641      8547  TIP3      H2            -41.4889505720      -48.3259424159       17.1352736648  W2        8563            0.0000000000
     25642      8548  TIP3      OH2           -40.5561705720      -51.1953924159       17.7732336648  W2        8564            0.0000000000
     25643      8548  TIP3      H1            -41.4195005720      -51.5741824159       17.6077036648  W2        8564            0.0000000000
     25644      8548  TIP3      H2            -39.9518005720      -51.9339124159       17.6988136648  W2        8564            0.0000000000
     25645      8549  TIP3      OH2           -42.8312605720      -55.0405624159        0.9463836648  W2        8565            0.0000000000
     25646      8549  TIP3      H1            -42.2206805720      -55.4118824159        1.5832036648  W2        8565            0.0000000000
     25647      8549  TIP3      H2            -43.6681105720      -55.4618724159        1.1423836648  W2        8565            0.0000000000
     25648      8550  TIP3      OH2           -43.1986905720      -53.4857224159        5.9123736648  W2        8566            0.0000000000
     25649      8550  TIP3      H1            -42.9189805720      -54.3926824159        6.0365436648  W2        8566            0.0000000000
     25650      8550  TIP3      H2            -42.4395205720      -53.0515724159        5.5232936648  W2        8566            0.0000000000
     25651      8551  TIP3      OH2           -42.5868605720      -52.9039824159       11.3482636648  W2        8567            0.0000000000
     25652      8551  TIP3      H1            -41.6540605720      -52.6919924159       11.3138636648  W2        8567            0.0000000000
     25653      8551  TIP3      H2            -42.8221105720      -52.8027724159       12.2705636648  W2        8567            0.0000000000
     25654      8552  TIP3      OH2           -42.5576705720      -52.1674524159       14.1242036648  W2        8568            0.0000000000
     25655      8552  TIP3      H1            -43.4005405720      -51.8994124159       14.4901836648  W2        8568            0.0000000000
     25656      8552  TIP3      H2            -42.1152405720      -51.3452624159       13.9133136648  W2        8568            0.0000000000
     25657      8553  TIP3      OH2           -58.2764505720      -53.7195824159       17.6011236648  W2        8569            0.0000000000
     25658      8553  TIP3      H1            -57.3569605720      -53.8417524159       17.8374336648  W2        8569            0.0000000000
     25659      8553  TIP3      H2            -58.7260005720      -54.4696124159       17.9904736648  W2        8569            0.0000000000
     25660      8554  TIP3      OH2           -42.5852105720      -56.2227924159        5.9605736648  W2        8571            0.0000000000
     25661      8554  TIP3      H1            -42.4027105720      -56.6716424159        6.7860736648  W2        8571            0.0000000000
     25662      8554  TIP3      H2            -43.1849205720      -56.8073524159        5.4970336648  W2        8571            0.0000000000
     25663      8555  TIP3      OH2           -57.0552005720      -55.4074224159       10.4924136648  W2        8572            0.0000000000
     25664      8555  TIP3      H1            -56.6100405720      -56.1991724159       10.7943836648  W2        8572            0.0000000000
     25665      8555  TIP3      H2            -56.5889005720      -54.6909024159       10.9229736648  W2        8572            0.0000000000
     25666      8556  TIP3      OH2           -58.7511705720      -52.4081224159       11.5614336648  W2        8573            0.0000000000
     25667      8556  TIP3      H1            -58.2591905720      -52.6290724159       10.7706336648  W2        8573            0.0000000000
     25668      8556  TIP3      H2            -58.3890805720      -51.5677824159       11.8423836648  W2        8573            0.0000000000
     25669      8557  TIP3      OH2           -40.7185905720      -56.1549824159        2.4886036648  W2        8575            0.0000000000
     25670      8557  TIP3      H1            -40.3063305720      -56.8764124159        2.0134036648  W2        8575            0.0000000000
     25671      8557  TIP3      H2            -40.0369405720      -55.4855224159        2.5470336648  W2        8575            0.0000000000
     25672      8558  TIP3      OH2           -58.4375205720      -56.1502124159        5.6156736648  W2        8576            0.0000000000
     25673      8558  TIP3      H1            -59.3626805720      -55.9415524159        5.4862236648  W2        8576            0.0000000000
     25674      8558  TIP3      H2            -57.9835305720      -55.6661324159        4.9259036648  W2        8576            0.0000000000
     25675      8559  TIP3      OH2           -43.6668005720      -41.1660424159        7.5614136648  W2        8577            0.0000000000
     25676      8559  TIP3      H1            -43.0145105720      -41.5138324159        6.9533236648  W2        8577            0.0000000000
     25677      8559  TIP3      H2            -43.1564205720      -40.6777224159        8.2073836648  W2        8577            0.0000000000
     25678      8560  TIP3      OH2           -58.4739805720      -57.4123124159       13.9599236648  W2        8578            0.0000000000
     25679      8560  TIP3      H1            -59.1389305720      -57.6582824159       14.6030136648  W2        8578            0.0000000000
     25680      8560  TIP3      H2            -58.9168505720      -56.7902724159       13.3827236648  W2        8578            0.0000000000
     25681      8561  TIP3      OH2           -53.3277605720      -43.2627824159       14.3629036648  W2        8580            0.0000000000
     25682      8561  TIP3      H1            -53.7526505720      -42.4529324159       14.0803636648  W2        8580            0.0000000000
     25683      8561  TIP3      H2            -52.4234805720      -43.1773724159       14.0608836648  W2        8580            0.0000000000
     25684      8562  TIP3      OH2           -49.0166205720      -41.8637824159       17.3222736648  W2        8581            0.0000000000
     25685      8562  TIP3      H1            -48.8318705720      -42.1971724159       18.2003036648  W2        8581            0.0000000000
     25686      8562  TIP3      H2            -48.1701705720      -41.5539224159       17.0001936648  W2        8581            0.0000000000
     25687      8563  TIP3      OH2           -46.6715805720      -40.5778924159       16.5664136648  W2        8582            0.0000000000
     25688      8563  TIP3      H1            -45.9946905720      -41.2106624159       16.3263336648  W2        8582            0.0000000000
     25689      8563  TIP3      H2            -46.3497005720      -40.1768424159       17.3737436648  W2        8582            0.0000000000
     25690      8564  TIP3      OH2           -41.7542005720      -57.9883424159       15.6459136648  W2        8583            0.0000000000
     25691      8564  TIP3      H1            -42.5668505720      -57.6633124159       15.2583836648  W2        8583            0.0000000000
     25692      8564  TIP3      H2            -41.5213505720      -58.7484924159       15.1128236648  W2        8583            0.0000000000
     25693      8565  TIP3      OH2           -55.9260905720      -40.0063924159       14.4104336648  W2        8584            0.0000000000
     25694      8565  TIP3      H1            -56.6464505720      -39.5662924159       13.9592036648  W2        8584            0.0000000000
     25695      8565  TIP3      H2            -56.2916905720      -40.2569224159       15.2588336648  W2        8584            0.0000000000
     25696      8566  TIP3      OH2           -53.4588305720      -40.4060024159       13.4401536648  W2        8585            0.0000000000
     25697      8566  TIP3      H1            -54.3236105720      -40.3341524159       13.8441636648  W2        8585            0.0000000000
     25698      8566  TIP3      H2            -53.5139305720      -39.8592724159       12.6564036648  W2        8585            0.0000000000
     25699      8567  TIP3      OH2           -48.7482705720      -40.5181124159       12.6157536648  W2        8586            0.0000000000
     25700      8567  TIP3      H1            -49.2048705720      -39.9891424159       11.9615936648  W2        8586            0.0000000000
     25701      8567  TIP3      H2            -48.5854705720      -39.9149724159       13.3409836648  W2        8586            0.0000000000
     25702      8568  TIP3      OH2           -46.4206405720      -41.6401524159       13.5607836648  W2        8587            0.0000000000
     25703      8568  TIP3      H1            -47.3252705720      -41.4751324159       13.2949936648  W2        8587            0.0000000000
     25704      8568  TIP3      H2            -45.9917805720      -40.7869324159       13.4951236648  W2        8587            0.0000000000
     25705      8569  TIP3      OH2           -43.8164505720      -40.0702424159       13.8555636648  W2        8588            0.0000000000
     25706      8569  TIP3      H1            -43.9982505720      -39.1543524159       13.6450536648  W2        8588            0.0000000000
     25707      8569  TIP3      H2            -43.6396705720      -40.4805324159       13.0090236648  W2        8588            0.0000000000
     25708      8570  TIP3      OH2           -56.5112805720      -41.3831424159       11.3206136648  W2        8589            0.0000000000
     25709      8570  TIP3      H1            -56.5296805720      -41.8086324159       12.1778436648  W2        8589            0.0000000000
     25710      8570  TIP3      H2            -55.7064905720      -41.7016424159       10.9118336648  W2        8589            0.0000000000
     25711      8571  TIP3      OH2           -54.3699705720      -42.6732724159        9.9756036648  W2        8590            0.0000000000
     25712      8571  TIP3      H1            -54.5889005720      -43.5895324159       10.1452036648  W2        8590            0.0000000000
     25713      8571  TIP3      H2            -53.5457505720      -42.5332324159       10.4417436648  W2        8590            0.0000000000
     25714      8572  TIP3      OH2           -51.8327205720      -42.2033424159       10.8244036648  W2        8591            0.0000000000
     25715      8572  TIP3      H1            -51.6201505720      -43.0914424159       10.5374936648  W2        8591            0.0000000000
     25716      8572  TIP3      H2            -51.7682105720      -42.2375724159       11.7788036648  W2        8591            0.0000000000
     25717      8573  TIP3      OH2           -48.3243505720      -56.5392824159        9.9687336648  W2        8592            0.0000000000
     25718      8573  TIP3      H1            -48.9986705720      -57.1687224159       10.2243136648  W2        8592            0.0000000000
     25719      8573  TIP3      H2            -47.7604305720      -57.0233924159        9.3655236648  W2        8592            0.0000000000
     25720      8574  TIP3      OH2           -43.1816305720      -58.4318824159       10.0814436648  W2        8593            0.0000000000
     25721      8574  TIP3      H1            -42.5778705720      -57.8843424159        9.5795436648  W2        8593            0.0000000000
     25722      8574  TIP3      H2            -44.0514305720      -58.1128424159        9.8408536648  W2        8593            0.0000000000
     25723      8575  TIP3      OH2           -41.4545905720      -57.2930124159        8.4145336648  W2        8594            0.0000000000
     25724      8575  TIP3      H1            -40.8428405720      -57.8074424159        7.8878936648  W2        8594            0.0000000000
     25725      8575  TIP3      H2            -41.0722505720      -56.4158024159        8.4379736648  W2        8594            0.0000000000
     25726      8576  TIP3      OH2           -55.9976005720      -57.9052524159        7.7907236648  W2        8595            0.0000000000
     25727      8576  TIP3      H1            -56.7746205720      -58.1397624159        7.2833136648  W2        8595            0.0000000000
     25728      8576  TIP3      H2            -55.4672405720      -58.7020424159        7.7995236648  W2        8595            0.0000000000
     25729      8577  TIP3      OH2           -57.1612605720      -58.1074424159        3.5943336648  W2        8596            0.0000000000
     25730      8577  TIP3      H1            -56.7221905720      -57.4963924159        3.0026836648  W2        8596            0.0000000000
     25731      8577  TIP3      H2            -57.7950205720      -57.5690324159        4.0683336648  W2        8596            0.0000000000
     25732      8578  TIP3      OH2           -51.4183405720      -57.9785424159        7.6040336648  W2        8597            0.0000000000
     25733      8578  TIP3      H1            -50.5440005720      -57.5901124159        7.5744636648  W2        8597            0.0000000000
     25734      8578  TIP3      H2            -51.5542605720      -58.1937624159        8.5267536648  W2        8597            0.0000000000
     25735      8579  TIP3      OH2           -45.8615005720      -57.9485624159        9.2532036648  W2        8598            0.0000000000
     25736      8579  TIP3      H1            -45.7853405720      -57.8534024159        8.3038036648  W2        8598            0.0000000000
     25737      8579  TIP3      H2            -46.1365805720      -58.8562724159        9.3821136648  W2        8598            0.0000000000
     25738      8580  TIP3      OH2           -44.5082405720      -57.9227824159        4.9457036648  W2        8599            0.0000000000
     25739      8580  TIP3      H1            -45.2111305720      -57.3078624159        4.7358436648  W2        8599            0.0000000000
     25740      8580  TIP3      H2            -44.9531005720      -58.7601124159        5.0767936648  W2        8599            0.0000000000
     25741      8581  TIP3      OH2           -57.2603105720      -42.1592224159        4.4918436648  W2        8600            0.0000000000
     25742      8581  TIP3      H1            -57.9453205720      -42.1973324159        3.8243536648  W2        8600            0.0000000000
     25743      8581  TIP3      H2            -57.2565905720      -41.2464624159        4.7800536648  W2        8600            0.0000000000
     25744      8582  TIP3      OH2           -55.3003505720      -56.1912924159        2.0367436648  W2        8601            0.0000000000
     25745      8582  TIP3      H1            -54.8090105720      -56.8210524159        1.5092936648  W2        8601            0.0000000000
     25746      8582  TIP3      H2            -54.6767205720      -55.8953524159        2.6998636648  W2        8601            0.0000000000
     25747      8583  TIP3      OH2           -50.2743405720      -55.8981424159        4.4937936648  W2        8602            0.0000000000
     25748      8583  TIP3      H1            -50.0962105720      -56.5448224159        5.1766536648  W2        8602            0.0000000000
     25749      8583  TIP3      H2            -50.3277205720      -55.0643724159        4.9609036648  W2        8602            0.0000000000
     25750      8584  TIP3      OH2           -48.3959605720      -40.9497324159        2.8894636648  W2        8603            0.0000000000
     25751      8584  TIP3      H1            -47.5299405720      -40.5829924159        2.7112836648  W2        8603            0.0000000000
     25752      8584  TIP3      H2            -48.6426805720      -41.3889324159        2.0755436648  W2        8603            0.0000000000
     25753      8585  TIP3      OH2           -41.6870005720      -41.3867024159        5.5685736648  W2        8604            0.0000000000
     25754      8585  TIP3      H1            -41.8812905720      -42.1344924159        5.0035336648  W2        8604            0.0000000000
     25755      8585  TIP3      H2            -41.7259905720      -40.6286924159        4.9853636648  W2        8604            0.0000000000
     25756      8586  TIP3      OH2           -56.0398005720      -57.3910624159       17.3083436648  W2        8605            0.0000000000
     25757      8586  TIP3      H1            -56.4059805720      -58.1568024159       17.7508136648  W2        8605            0.0000000000
     25758      8586  TIP3      H2            -55.1269505720      -57.3620424159       17.5948536648  W2        8605            0.0000000000
     25759      8587  TIP3      OH2           -55.4421905720      -41.2391424159        1.5170536648  W2        8607            0.0000000000
     25760      8587  TIP3      H1            -55.7097305720      -40.9528524159        2.3903636648  W2        8607            0.0000000000
     25761      8587  TIP3      H2            -54.6709305720      -41.7852224159        1.6693036648  W2        8607            0.0000000000
     25762      8588  TIP3      OH2           -42.4693805720      -42.6354624159       17.7187536648  W2        8609            0.0000000000
     25763      8588  TIP3      H1            -43.2511905720      -42.8216624159       17.1988136648  W2        8609            0.0000000000
     25764      8588  TIP3      H2            -42.5413905720      -41.7060324159       17.9360036648  W2        8609            0.0000000000
     25765      8589  TIP3      OH2           -28.0633405720      -48.7490224159        7.7494736648  W2        8610            0.0000000000
     25766      8589  TIP3      H1            -27.9742305720      -47.8052024159        7.6171836648  W2        8610            0.0000000000
     25767      8589  TIP3      H2            -28.7015805720      -49.0243824159        7.0914136648  W2        8610            0.0000000000
     25768      8590  TIP3      OH2           -29.1302105720      -49.4939524159       11.1682936648  W2        8611            0.0000000000
     25769      8590  TIP3      H1            -29.1684605720      -50.1403224159       11.8732536648  W2        8611            0.0000000000
     25770      8590  TIP3      H2            -29.4525605720      -49.9605124159       10.3971636648  W2        8611            0.0000000000
     25771      8591  TIP3      OH2           -36.7617105720      -49.8797424159       12.7612836648  W2        8612            0.0000000000
     25772      8591  TIP3      H1            -36.7205005720      -50.5054124159       13.4845236648  W2        8612            0.0000000000
     25773      8591  TIP3      H2            -36.0589405720      -49.2558824159       12.9433236648  W2        8612            0.0000000000
     25774      8592  TIP3      OH2           -25.4241905720      -46.5549124159        9.4698036648  W2        8613            0.0000000000
     25775      8592  TIP3      H1            -25.8649205720      -47.2753124159        9.9203636648  W2        8613            0.0000000000
     25776      8592  TIP3      H2            -25.4372205720      -45.8341924159       10.0995736648  W2        8613            0.0000000000
     25777      8593  TIP3      OH2           -35.8384005720      -45.4298524159       11.2961936648  W2        8614            0.0000000000
     25778      8593  TIP3      H1            -36.2078805720      -46.2318024159       10.9266236648  W2        8614            0.0000000000
     25779      8593  TIP3      H2            -34.8972905720      -45.5983624159       11.3425336648  W2        8614            0.0000000000
     25780      8594  TIP3      OH2           -39.2283505720      -51.7695924159        6.6890736648  W2        8615            0.0000000000
     25781      8594  TIP3      H1            -39.6760105720      -50.9237224159        6.6707236648  W2        8615            0.0000000000
     25782      8594  TIP3      H2            -39.7892305720      -52.3491724159        6.1735836648  W2        8615            0.0000000000
     25783      8595  TIP3      OH2           -38.5177405720      -49.6076324159        8.8148736648  W2        8616            0.0000000000
     25784      8595  TIP3      H1            -38.3043905720      -50.3774724159        9.3421736648  W2        8616            0.0000000000
     25785      8595  TIP3      H2            -37.7799805720      -49.5179624159        8.2116336648  W2        8616            0.0000000000
     25786      8596  TIP3      OH2           -28.3126405720      -41.4507424159        9.6818436648  W2        8617            0.0000000000
     25787      8596  TIP3      H1            -27.6930005720      -42.1272724159        9.4087636648  W2        8617            0.0000000000
     25788      8596  TIP3      H2            -28.5209005720      -41.6686624159       10.5903336648  W2        8617            0.0000000000
     25789      8597  TIP3      OH2           -30.7407705720      -47.0618124159       11.5743936648  W2        8618            0.0000000000
     25790      8597  TIP3      H1            -30.4369805720      -47.7476724159       10.9798036648  W2        8618            0.0000000000
     25791      8597  TIP3      H2            -30.0193705720      -46.9429424159       12.1921936648  W2        8618            0.0000000000
     25792      8598  TIP3      OH2           -22.0777905720      -55.4602824159       12.4350136648  W2        8619            0.0000000000
     25793      8598  TIP3      H1            -22.0285705720      -54.8501624159       13.1709236648  W2        8619            0.0000000000
     25794      8598  TIP3      H2            -21.6522805720      -54.9991924159       11.7121236648  W2        8619            0.0000000000
     25795      8599  TIP3      OH2           -27.6000705720      -52.6675724159       11.9018736648  W2        8620            0.0000000000
     25796      8599  TIP3      H1            -27.4574805720      -53.6138724159       11.9220336648  W2        8620            0.0000000000
     25797      8599  TIP3      H2            -27.7061705720      -52.4605924159       10.9733636648  W2        8620            0.0000000000
     25798      8600  TIP3      OH2           -34.4452405720      -54.5659324159        9.1743536648  W2        8621            0.0000000000
     25799      8600  TIP3      H1            -34.4021305720      -53.7060824159        8.7559836648  W2        8621            0.0000000000
     25800      8600  TIP3      H2            -34.9028305720      -55.1184624159        8.5406736648  W2        8621            0.0000000000
     25801      8601  TIP3      OH2           -26.7229705720      -54.4353724159        7.5751836648  W2        8622            0.0000000000
     25802      8601  TIP3      H1            -26.0765405720      -54.7640524159        8.1999436648  W2        8622            0.0000000000
     25803      8601  TIP3      H2            -26.2130305720      -53.9174724159        6.9523236648  W2        8622            0.0000000000
     25804      8602  TIP3      OH2           -37.8250905720      -52.1693524159        9.9364936648  W2        8623            0.0000000000
     25805      8602  TIP3      H1            -37.1714305720      -52.7191824159       10.3685036648  W2        8623            0.0000000000
     25806      8602  TIP3      H2            -37.8011605720      -52.4434524159        9.0196936648  W2        8623            0.0000000000
     25807      8603  TIP3      OH2           -32.6686405720      -50.6192224159        9.1516436648  W2        8624            0.0000000000
     25808      8603  TIP3      H1            -32.0525405720      -51.1456824159        9.6610436648  W2        8624            0.0000000000
     25809      8603  TIP3      H2            -33.2547605720      -51.2593524159        8.7480036648  W2        8624            0.0000000000
     25810      8604  TIP3      OH2           -21.6863305720      -53.9823624159       14.6709936648  W2        8625            0.0000000000
     25811      8604  TIP3      H1            -22.3748705720      -53.3242924159       14.5756536648  W2        8625            0.0000000000
     25812      8604  TIP3      H2            -21.6708705720      -54.1795724159       15.6075336648  W2        8625            0.0000000000
     25813      8605  TIP3      OH2           -35.6350505720      -55.6480924159       13.2484336648  W2        8626            0.0000000000
     25814      8605  TIP3      H1            -35.8538805720      -55.1180324159       12.4820336648  W2        8626            0.0000000000
     25815      8605  TIP3      H2            -36.3029605720      -55.4215424159       13.8955736648  W2        8626            0.0000000000
     25816      8606  TIP3      OH2           -28.2660705720      -46.1479824159        6.7923436648  W2        8627            0.0000000000
     25817      8606  TIP3      H1            -28.5615605720      -46.4707524159        5.9410336648  W2        8627            0.0000000000
     25818      8606  TIP3      H2            -28.5902905720      -45.2483124159        6.8336036648  W2        8627            0.0000000000
     25819      8607  TIP3      OH2           -33.0659105720      -47.9725224159       13.5358036648  W2        8628            0.0000000000
     25820      8607  TIP3      H1            -33.8060005720      -47.3743724159       13.6393236648  W2        8628            0.0000000000
     25821      8607  TIP3      H2            -32.3519605720      -47.4185624159       13.2201636648  W2        8628            0.0000000000
     25822      8608  TIP3      OH2           -24.9591305720      -55.1444424159        9.5557736648  W2        8629            0.0000000000
     25823      8608  TIP3      H1            -25.1743305720      -55.9101024159       10.0883736648  W2        8629            0.0000000000
     25824      8608  TIP3      H2            -24.3033905720      -54.6719824159       10.0686236648  W2        8629            0.0000000000
     25825      8609  TIP3      OH2           -36.0413205720      -53.7559124159       11.2006536648  W2        8630            0.0000000000
     25826      8609  TIP3      H1            -35.4276905720      -53.1231524159       11.5738936648  W2        8630            0.0000000000
     25827      8609  TIP3      H2            -35.5292505720      -54.2284124159       10.5443436648  W2        8630            0.0000000000
     25828      8610  TIP3      OH2           -34.6584805720      -46.0082224159       14.3229536648  W2        8631            0.0000000000
     25829      8610  TIP3      H1            -34.6637205720      -45.1288724159       13.9448836648  W2        8631            0.0000000000
     25830      8610  TIP3      H2            -35.5120705720      -46.0918124159       14.7479436648  W2        8631            0.0000000000
     25831      8611  TIP3      OH2           -38.5373905720      -46.3374324159        5.1048836648  W2        8632            0.0000000000
     25832      8611  TIP3      H1            -38.8093005720      -46.1083324159        4.2161736648  W2        8632            0.0000000000
     25833      8611  TIP3      H2            -38.4918205720      -45.4995524159        5.5654136648  W2        8632            0.0000000000
     25834      8612  TIP3      OH2           -24.9124205720      -44.7158424159       11.8177336648  W2        8633            0.0000000000
     25835      8612  TIP3      H1            -25.8540505720      -44.6574524159       11.9794236648  W2        8633            0.0000000000
     25836      8612  TIP3      H2            -24.6358105720      -43.8097924159       11.6807036648  W2        8633            0.0000000000
     25837      8613  TIP3      OH2           -24.6117205720      -56.4293124159       13.2351236648  W2        8634            0.0000000000
     25838      8613  TIP3      H1            -25.3478005720      -55.8186024159       13.1972536648  W2        8634            0.0000000000
     25839      8613  TIP3      H2            -23.9283205720      -56.0144124159       12.7087636648  W2        8634            0.0000000000
     25840      8614  TIP3      OH2           -31.6085805720      -58.3425824159       10.7009236648  W2        8635            0.0000000000
     25841      8614  TIP3      H1            -31.7261605720      -59.2909824159       10.6467536648  W2        8635            0.0000000000
     25842      8614  TIP3      H2            -32.4635705720      -58.0099724159       10.9740336648  W2        8635            0.0000000000
     25843      8615  TIP3      OH2           -26.6603005720      -42.9344924159        8.4428936648  W2        8636            0.0000000000
     25844      8615  TIP3      H1            -26.2350705720      -43.6417024159        7.9578536648  W2        8636            0.0000000000
     25845      8615  TIP3      H2            -26.3433005720      -42.1332224159        8.0261136648  W2        8636            0.0000000000
     25846      8616  TIP3      OH2           -25.5006505720      -45.0336424159        6.9515536648  W2        8637            0.0000000000
     25847      8616  TIP3      H1            -25.7581705720      -45.7236324159        6.3401436648  W2        8637            0.0000000000
     25848      8616  TIP3      H2            -25.4295705720      -45.4765224159        7.7971436648  W2        8637            0.0000000000
     25849      8617  TIP3      OH2           -23.8146305720      -46.4669724159       15.4289036648  W2        8638            0.0000000000
     25850      8617  TIP3      H1            -23.6750005720      -47.0587224159       14.6896036648  W2        8638            0.0000000000
     25851      8617  TIP3      H2            -23.6473505720      -45.5943824159       15.0727836648  W2        8638            0.0000000000
     25852      8618  TIP3      OH2           -29.3420905720      -49.5050224159        5.2015036648  W2        8639            0.0000000000
     25853      8618  TIP3      H1            -30.0535405720      -48.9700524159        4.8495536648  W2        8639            0.0000000000
     25854      8618  TIP3      H2            -28.6511305720      -49.4498124159        4.5413936648  W2        8639            0.0000000000
     25855      8619  TIP3      OH2           -29.2881705720      -51.0475924159        2.2400036648  W2        8640            0.0000000000
     25856      8619  TIP3      H1            -28.5871805720      -51.0249024159        2.8914036648  W2        8640            0.0000000000
     25857      8619  TIP3      H2            -28.9858805720      -51.6756224159        1.5839336648  W2        8640            0.0000000000
     25858      8620  TIP3      OH2           -21.9727005720      -50.1271724159       13.4949436648  W2        8641            0.0000000000
     25859      8620  TIP3      H1            -22.6252905720      -49.4326124159       13.5840336648  W2        8641            0.0000000000
     25860      8620  TIP3      H2            -21.5076705720      -49.9170824159       12.6851036648  W2        8641            0.0000000000
     25861      8621  TIP3      OH2           -25.9363205720      -49.2956924159        6.1530936648  W2        8642            0.0000000000
     25862      8621  TIP3      H1            -26.6682205720      -49.0673224159        6.7261536648  W2        8642            0.0000000000
     25863      8621  TIP3      H2            -25.4891005720      -50.0094224159        6.6078436648  W2        8642            0.0000000000
     25864      8622  TIP3      OH2           -26.0389705720      -51.1214324159       15.2207936648  W2        8643            0.0000000000
     25865      8622  TIP3      H1            -25.9590605720      -50.3579924159       15.7926436648  W2        8643            0.0000000000
     25866      8622  TIP3      H2            -26.6402005720      -50.8421924159       14.5303036648  W2        8643            0.0000000000
     25867      8623  TIP3      OH2           -34.2909505720      -48.6650724159        8.0355936648  W2        8644            0.0000000000
     25868      8623  TIP3      H1            -34.6214305720      -49.0357324159        7.2172936648  W2        8644            0.0000000000
     25869      8623  TIP3      H2            -33.7025405720      -49.3356724159        8.3824236648  W2        8644            0.0000000000
     25870      8624  TIP3      OH2           -32.9242005720      -45.2370124159       10.7168136648  W2        8645            0.0000000000
     25871      8624  TIP3      H1            -33.0190705720      -45.8157024159        9.9602736648  W2        8645            0.0000000000
     25872      8624  TIP3      H2            -32.1948405720      -45.6084424159       11.2130936648  W2        8645            0.0000000000
     25873      8625  TIP3      OH2           -33.9244005720      -49.8965124159       11.6690936648  W2        8646            0.0000000000
     25874      8625  TIP3      H1            -33.3591505720      -49.7750924159       10.9062136648  W2        8646            0.0000000000
     25875      8625  TIP3      H2            -33.6055105720      -49.2590124159       12.3079436648  W2        8646            0.0000000000
     25876      8626  TIP3      OH2           -27.6151805720      -44.3933224159       12.4031436648  W2        8647            0.0000000000
     25877      8626  TIP3      H1            -27.8555205720      -43.7310124159       13.0510636648  W2        8647            0.0000000000
     25878      8626  TIP3      H2            -27.8133605720      -45.2278024159       12.8281036648  W2        8647            0.0000000000
     25879      8627  TIP3      OH2           -33.0443305720      -45.4972424159       16.3862836648  W2        8648            0.0000000000
     25880      8627  TIP3      H1            -33.3555805720      -44.7149224159       16.8416036648  W2        8648            0.0000000000
     25881      8627  TIP3      H2            -33.6943105720      -45.6503324159       15.7004836648  W2        8648            0.0000000000
     25882      8628  TIP3      OH2           -27.0653705720      -50.1334024159        3.8382136648  W2        8649            0.0000000000
     25883      8628  TIP3      H1            -26.4858205720      -49.9833724159        4.5851036648  W2        8649            0.0000000000
     25884      8628  TIP3      H2            -26.6513705720      -49.6626624159        3.1148536648  W2        8649            0.0000000000
     25885      8629  TIP3      OH2           -36.1243405720      -49.2991324159       15.6148536648  W2        8650            0.0000000000
     25886      8629  TIP3      H1            -36.0540205720      -48.6484524159       16.3133536648  W2        8650            0.0000000000
     25887      8629  TIP3      H2            -37.0151205720      -49.1963824159       15.2799436648  W2        8650            0.0000000000
     25888      8630  TIP3      OH2           -29.3388805720      -43.3965524159        7.2735236648  W2        8651            0.0000000000
     25889      8630  TIP3      H1            -28.8651205720      -43.1009224159        8.0509436648  W2        8651            0.0000000000
     25890      8630  TIP3      H2            -29.9019505720      -42.6583924159        7.0404836648  W2        8651            0.0000000000
     25891      8631  TIP3      OH2           -34.8047405720      -43.4257424159       17.1496636648  W2        8652            0.0000000000
     25892      8631  TIP3      H1            -34.7972105720      -43.5617724159       16.2022136648  W2        8652            0.0000000000
     25893      8631  TIP3      H2            -35.7207005720      -43.5429324159       17.4016636648  W2        8652            0.0000000000
     25894      8632  TIP3      OH2           -23.3665305720      -58.3833624159        3.6511836648  W2        8653            0.0000000000
     25895      8632  TIP3      H1            -24.2664605720      -58.2444624159        3.9462436648  W2        8653            0.0000000000
     25896      8632  TIP3      H2            -23.1146905720      -57.5519024159        3.2493536648  W2        8653            0.0000000000
     25897      8633  TIP3      OH2           -35.3006805720      -49.5956424159        5.6248736648  W2        8654            0.0000000000
     25898      8633  TIP3      H1            -35.5925505720      -48.8274724159        5.1340036648  W2        8654            0.0000000000
     25899      8633  TIP3      H2            -35.9751605720      -50.2550224159        5.4620136648  W2        8654            0.0000000000
     25900      8634  TIP3      OH2           -22.1773905720      -44.0171224159        2.0275736648  W2        8655            0.0000000000
     25901      8634  TIP3      H1            -22.1040405720      -43.0781024159        2.1981036648  W2        8655            0.0000000000
     25902      8634  TIP3      H2            -21.2718805720      -44.3222624159        1.9713036648  W2        8655            0.0000000000
     25903      8635  TIP3      OH2           -39.2076705720      -47.2327224159       14.4398536648  W2        8656            0.0000000000
     25904      8635  TIP3      H1            -39.7088305720      -47.2607824159       13.6248236648  W2        8656            0.0000000000
     25905      8635  TIP3      H2            -39.2023005720      -48.1384024159       14.7495836648  W2        8656            0.0000000000
     25906      8636  TIP3      OH2           -39.4574005720      -44.4523424159       11.3238736648  W2        8657            0.0000000000
     25907      8636  TIP3      H1            -38.5113405720      -44.5966424159       11.3048236648  W2        8657            0.0000000000
     25908      8636  TIP3      H2            -39.5697705720      -43.6680624159       11.8609936648  W2        8657            0.0000000000
     25909      8637  TIP3      OH2           -21.2595505720      -43.7863724159       17.0062436648  W2        8658            0.0000000000
     25910      8637  TIP3      H1            -21.3088705720      -44.7415624159       16.9690036648  W2        8658            0.0000000000
     25911      8637  TIP3      H2            -22.0863205720      -43.5188424159       17.4076236648  W2        8658            0.0000000000
     25912      8638  TIP3      OH2           -30.2811505720      -44.2124524159       15.8823836648  W2        8659            0.0000000000
     25913      8638  TIP3      H1            -30.1936905720      -43.3859924159       16.3572936648  W2        8659            0.0000000000
     25914      8638  TIP3      H2            -31.1446405720      -44.5420724159       16.1313136648  W2        8659            0.0000000000
     25915      8639  TIP3      OH2           -29.8665705720      -40.4400824159        5.6884436648  W2        8660            0.0000000000
     25916      8639  TIP3      H1            -29.9419705720      -40.5613624159        4.7419636648  W2        8660            0.0000000000
     25917      8639  TIP3      H2            -29.8337005720      -39.4908124159        5.8069036648  W2        8660            0.0000000000
     25918      8640  TIP3      OH2           -36.2131905720      -41.6513824159        7.4693436648  W2        8661            0.0000000000
     25919      8640  TIP3      H1            -36.0611505720      -41.9993424159        8.3479936648  W2        8661            0.0000000000
     25920      8640  TIP3      H2            -37.0641505720      -42.0076524159        7.2140636648  W2        8661            0.0000000000
     25921      8641  TIP3      OH2           -26.7649705720      -41.2860624159        2.6906836648  W2        8662            0.0000000000
     25922      8641  TIP3      H1            -26.3901305720      -42.0304524159        2.2199436648  W2        8662            0.0000000000
     25923      8641  TIP3      H2            -26.7606005720      -41.5560024159        3.6090136648  W2        8662            0.0000000000
     25924      8642  TIP3      OH2           -27.0961605720      -41.3603524159        5.4399036648  W2        8663            0.0000000000
     25925      8642  TIP3      H1            -28.0311805720      -41.2601624159        5.6186036648  W2        8663            0.0000000000
     25926      8642  TIP3      H2            -26.8159705720      -42.0697524159        6.0182236648  W2        8663            0.0000000000
     25927      8643  TIP3      OH2           -24.1075705720      -52.2931224159       17.4864636648  W2        8664            0.0000000000
     25928      8643  TIP3      H1            -24.5148905720      -51.8125624159       16.7657936648  W2        8664            0.0000000000
     25929      8643  TIP3      H2            -24.0670005720      -53.1985224159       17.1785436648  W2        8664            0.0000000000
     25930      8644  TIP3      OH2           -36.9586205720      -45.9091824159       15.4831336648  W2        8665            0.0000000000
     25931      8644  TIP3      H1            -36.7424905720      -46.2706224159       16.3427136648  W2        8665            0.0000000000
     25932      8644  TIP3      H2            -37.8141505720      -46.2838024159       15.2734836648  W2        8665            0.0000000000
     25933      8645  TIP3      OH2           -34.3398205720      -57.4391324159       11.4785536648  W2        8666            0.0000000000
     25934      8645  TIP3      H1            -35.2014505720      -57.5263124159       11.0708436648  W2        8666            0.0000000000
     25935      8645  TIP3      H2            -34.3622505720      -56.5831224159       11.9063136648  W2        8666            0.0000000000
     25936      8646  TIP3      OH2           -29.6770405720      -57.7170924159       14.8532536648  W2        8667            0.0000000000
     25937      8646  TIP3      H1            -29.2567305720      -58.1323824159       15.6063136648  W2        8667            0.0000000000
     25938      8646  TIP3      H2            -30.6100805720      -57.8957624159       14.9704536648  W2        8667            0.0000000000
     25939      8647  TIP3      OH2           -26.3505505720      -53.9615724159       15.7067036648  W2        8668            0.0000000000
     25940      8647  TIP3      H1            -26.8646005720      -54.0873524159       16.5043036648  W2        8668            0.0000000000
     25941      8647  TIP3      H2            -26.5060805720      -53.0492624159       15.4623236648  W2        8668            0.0000000000
     25942      8648  TIP3      OH2           -25.5880605720      -49.1005724159        1.4680036648  W2        8669            0.0000000000
     25943      8648  TIP3      H1            -25.5459805720      -49.3231824159        0.5380036648  W2        8669            0.0000000000
     25944      8648  TIP3      H2            -24.7388505720      -48.7018624159        1.6579936648  W2        8669            0.0000000000
     25945      8649  TIP3      OH2           -30.0153105720      -55.2247524159        2.1383336648  W2        8670            0.0000000000
     25946      8649  TIP3      H1            -30.2688305720      -55.2055924159        3.0611436648  W2        8670            0.0000000000
     25947      8649  TIP3      H2            -30.2721005720      -56.0962124159        1.8369536648  W2        8670            0.0000000000
     25948      8650  TIP3      OH2           -34.2488105720      -52.4736824159       12.5735736648  W2        8671            0.0000000000
     25949      8650  TIP3      H1            -34.8906005720      -52.5139524159       13.2825836648  W2        8671            0.0000000000
     25950      8650  TIP3      H2            -34.2116105720      -51.5472124159       12.3358736648  W2        8671            0.0000000000
     25951      8651  TIP3      OH2           -34.2519005720      -52.2526724159        7.4855736648  W2        8672            0.0000000000
     25952      8651  TIP3      H1            -35.1446105720      -52.5930624159        7.4269536648  W2        8672            0.0000000000
     25953      8651  TIP3      H2            -33.8012405720      -52.6295824159        6.7298936648  W2        8672            0.0000000000
     25954      8652  TIP3      OH2           -28.7163505720      -51.8366424159        6.3026536648  W2        8673            0.0000000000
     25955      8652  TIP3      H1            -29.1253205720      -51.0217824159        6.0111336648  W2        8673            0.0000000000
     25956      8652  TIP3      H2            -27.9957305720      -51.9766324159        5.6883636648  W2        8673            0.0000000000
     25957      8653  TIP3      OH2           -29.6141905720      -51.6610024159       17.7907236648  W2        8674            0.0000000000
     25958      8653  TIP3      H1            -30.1768105720      -52.3658424159       18.1115036648  W2        8674            0.0000000000
     25959      8653  TIP3      H2            -28.7878505720      -51.7818124159       18.2584836648  W2        8674            0.0000000000
     25960      8654  TIP3      OH2           -27.7115805720      -52.3906024159        9.1166236648  W2        8675            0.0000000000
     25961      8654  TIP3      H1            -27.9071305720      -51.7849224159        8.4016836648  W2        8675            0.0000000000
     25962      8654  TIP3      H2            -27.5303205720      -53.2240824159        8.6822536648  W2        8675            0.0000000000
     25963      8655  TIP3      OH2           -36.4987605720      -52.1533324159       14.4407736648  W2        8676            0.0000000000
     25964      8655  TIP3      H1            -36.5368205720      -51.7531724159       15.3094836648  W2        8676            0.0000000000
     25965      8655  TIP3      H2            -36.9896505720      -52.9700924159       14.5310636648  W2        8676            0.0000000000
     25966      8656  TIP3      OH2           -33.1330205720      -54.7791024159        1.2393736648  W2        8677            0.0000000000
     25967      8656  TIP3      H1            -33.5639505720      -55.2240924159        1.9691136648  W2        8677            0.0000000000
     25968      8656  TIP3      H2            -33.8511505720      -54.4074724159        0.7271236648  W2        8677            0.0000000000
     25969      8657  TIP3      OH2           -39.8906805720      -55.0371524159        8.2912436648  W2        8678            0.0000000000
     25970      8657  TIP3      H1            -39.2599105720      -55.0659424159        9.0106336648  W2        8678            0.0000000000
     25971      8657  TIP3      H2            -39.4412505720      -55.4622824159        7.5608336648  W2        8678            0.0000000000
     25972      8658  TIP3      OH2           -38.6164705720      -54.2909524159        3.7152836648  W2        8679            0.0000000000
     25973      8658  TIP3      H1            -38.1423005720      -53.6999624159        3.1303736648  W2        8679            0.0000000000
     25974      8658  TIP3      H2            -39.3338305720      -53.7606624159        4.0622936648  W2        8679            0.0000000000
     25975      8659  TIP3      OH2           -28.4476605720      -50.7524724159       13.7878636648  W2        8680            0.0000000000
     25976      8659  TIP3      H1            -28.1241805720      -51.3835024159       13.1449136648  W2        8680            0.0000000000
     25977      8659  TIP3      H2            -28.8877305720      -51.2872524159       14.4486036648  W2        8680            0.0000000000
     25978      8660  TIP3      OH2           -31.6703705720      -54.8249224159        8.5719836648  W2        8681            0.0000000000
     25979      8660  TIP3      H1            -32.5812605720      -54.7682424159        8.8605836648  W2        8681            0.0000000000
     25980      8660  TIP3      H2            -31.1650805720      -54.8853724159        9.3827036648  W2        8681            0.0000000000
     25981      8661  TIP3      OH2           -36.8420305720      -53.1962924159        7.3987436648  W2        8682            0.0000000000
     25982      8661  TIP3      H1            -37.7312305720      -53.0967424159        7.0587036648  W2        8682            0.0000000000
     25983      8661  TIP3      H2            -36.5455405720      -54.0379924159        7.0525336648  W2        8682            0.0000000000
     25984      8662  TIP3      OH2           -33.1888505720      -53.1960324159        5.0552036648  W2        8683            0.0000000000
     25985      8662  TIP3      H1            -32.2573005720      -53.0670324159        5.2335136648  W2        8683            0.0000000000
     25986      8662  TIP3      H2            -33.4038205720      -52.5266024159        4.4056736648  W2        8683            0.0000000000
     25987      8663  TIP3      OH2           -27.2651805720      -55.5902924159       11.8361636648  W2        8684            0.0000000000
     25988      8663  TIP3      H1            -27.9420205720      -55.4589824159       12.5001336648  W2        8684            0.0000000000
     25989      8663  TIP3      H2            -27.7506905720      -55.7453424159       11.0259336648  W2        8684            0.0000000000
     25990      8664  TIP3      OH2           -34.5148305720      -52.0018124159        2.6218136648  W2        8685            0.0000000000
     25991      8664  TIP3      H1            -35.0573205720      -52.3814324159        1.9305736648  W2        8685            0.0000000000
     25992      8664  TIP3      H2            -33.6813405720      -51.8073424159        2.1932236648  W2        8685            0.0000000000
     25993      8665  TIP3      OH2           -36.3796905720      -47.4446224159       17.7209736648  W2        8687            0.0000000000
     25994      8665  TIP3      H1            -35.6474505720      -47.1900324159       18.2824236648  W2        8687            0.0000000000
     25995      8665  TIP3      H2            -37.1598205720      -47.2400824159       18.2365136648  W2        8687            0.0000000000
     25996      8666  TIP3      OH2           -30.3504005720      -52.0376224159       10.4589436648  W2        8688            0.0000000000
     25997      8666  TIP3      H1            -29.7860605720      -52.5839624159        9.9119036648  W2        8688            0.0000000000
     25998      8666  TIP3      H2            -30.4980605720      -52.5594324159       11.2477036648  W2        8688            0.0000000000
     25999      8667  TIP3      OH2           -35.3484305720      -55.9010124159        6.8774236648  W2        8689            0.0000000000
     26000      8667  TIP3      H1            -35.6654805720      -56.8034824159        6.8419636648  W2        8689            0.0000000000
     26001      8667  TIP3      H2            -34.5670205720      -55.8992724159        6.3245836648  W2        8689            0.0000000000
     26002      8668  TIP3      OH2           -31.7238105720      -53.6490124159       12.8729836648  W2        8690            0.0000000000
     26003      8668  TIP3      H1            -32.5592805720      -53.1950624159       12.9832236648  W2        8690            0.0000000000
     26004      8668  TIP3      H2            -31.1997505720      -53.3731624159       13.6249736648  W2        8690            0.0000000000
     26005      8669  TIP3      OH2           -31.1795505720      -47.4362424159        4.5576236648  W2        8691            0.0000000000
     26006      8669  TIP3      H1            -31.9244505720      -47.9437124159        4.2354136648  W2        8691            0.0000000000
     26007      8669  TIP3      H2            -31.3138305720      -47.3874424159        5.5041036648  W2        8691            0.0000000000
     26008      8670  TIP3      OH2           -24.0296605720      -48.3034224159       13.3443836648  W2        8692            0.0000000000
     26009      8670  TIP3      H1            -23.3877805720      -47.8467924159       12.8006036648  W2        8692            0.0000000000
     26010      8670  TIP3      H2            -24.8599705720      -48.1901824159       12.8817936648  W2        8692            0.0000000000
     26011      8671  TIP3      OH2           -27.2818705720      -54.6222524159        2.7568836648  W2        8693            0.0000000000
     26012      8671  TIP3      H1            -28.2204505720      -54.5106924159        2.6057636648  W2        8693            0.0000000000
     26013      8671  TIP3      H2            -26.9846605720      -53.7655624159        3.0634536648  W2        8693            0.0000000000
     26014      8672  TIP3      OH2           -29.6603405720      -47.2519124159       15.7945336648  W2        8694            0.0000000000
     26015      8672  TIP3      H1            -30.0057305720      -47.6336724159       16.6014936648  W2        8694            0.0000000000
     26016      8672  TIP3      H2            -29.8603305720      -46.3185524159       15.8658236648  W2        8694            0.0000000000
     26017      8673  TIP3      OH2           -26.5635205720      -52.7549824159        4.4176236648  W2        8695            0.0000000000
     26018      8673  TIP3      H1            -25.6716205720      -52.8924824159        4.7367436648  W2        8695            0.0000000000
     26019      8673  TIP3      H2            -26.5071605720      -51.9643724159        3.8809736648  W2        8695            0.0000000000
     26020      8674  TIP3      OH2           -36.0547205720      -48.1412424159       10.3274136648  W2        8696            0.0000000000
     26021      8674  TIP3      H1            -35.3100005720      -48.1436724159        9.7260636648  W2        8696            0.0000000000
     26022      8674  TIP3      H2            -35.9770605720      -48.9648624159       10.8089236648  W2        8696            0.0000000000
     26023      8675  TIP3      OH2           -29.0541405720      -45.9778124159        3.5830836648  W2        8697            0.0000000000
     26024      8675  TIP3      H1            -29.3493005720      -45.1510224159        3.9645636648  W2        8697            0.0000000000
     26025      8675  TIP3      H2            -29.7571405720      -46.5971224159        3.7792236648  W2        8697            0.0000000000
     26026      8676  TIP3      OH2           -39.0467505720      -49.6805524159       15.6422636648  W2        8698            0.0000000000
     26027      8676  TIP3      H1            -38.8238905720      -50.0985924159       16.4740136648  W2        8698            0.0000000000
     26028      8676  TIP3      H2            -39.6487405720      -50.2930524159       15.2195436648  W2        8698            0.0000000000
     26029      8677  TIP3      OH2           -27.4099805720      -44.7903624159       15.7450336648  W2        8700            0.0000000000
     26030      8677  TIP3      H1            -28.3105505720      -44.6071024159       15.4774236648  W2        8700            0.0000000000
     26031      8677  TIP3      H2            -27.3758705720      -44.5314324159       16.6659136648  W2        8700            0.0000000000
     26032      8678  TIP3      OH2           -21.6786505720      -52.5455724159        4.1122936648  W2        8701            0.0000000000
     26033      8678  TIP3      H1            -22.2330205720      -52.9417724159        3.4400436648  W2        8701            0.0000000000
     26034      8678  TIP3      H2            -21.5782905720      -51.6350524159        3.8346236648  W2        8701            0.0000000000
     26035      8679  TIP3      OH2           -21.7154505720      -46.7454024159       16.9494436648  W2        8702            0.0000000000
     26036      8679  TIP3      H1            -22.5666005720      -46.5070224159       16.5820836648  W2        8702            0.0000000000
     26037      8679  TIP3      H2            -21.1251105720      -46.7620824159       16.1961536648  W2        8702            0.0000000000
     26038      8680  TIP3      OH2           -23.3834805720      -43.7595324159        4.5775036648  W2        8703            0.0000000000
     26039      8680  TIP3      H1            -23.7563705720      -44.5851524159        4.8865636648  W2        8703            0.0000000000
     26040      8680  TIP3      H2            -23.1061305720      -43.9425924159        3.6798436648  W2        8703            0.0000000000
     26041      8681  TIP3      OH2           -26.2230905720      -48.9515824159       11.5986936648  W2        8704            0.0000000000
     26042      8681  TIP3      H1            -27.1514005720      -49.1833924159       11.5716236648  W2        8704            0.0000000000
     26043      8681  TIP3      H2            -25.7719805720      -49.7286024159       11.2685736648  W2        8704            0.0000000000
     26044      8682  TIP3      OH2           -33.6797805720      -44.6234224159        7.7315636648  W2        8705            0.0000000000
     26045      8682  TIP3      H1            -33.1525605720      -43.8499824159        7.5314436648  W2        8705            0.0000000000
     26046      8682  TIP3      H2            -34.5599305720      -44.3985024159        7.4299636648  W2        8705            0.0000000000
     26047      8683  TIP3      OH2           -37.9250105720      -49.7610124159        2.3188036648  W2        8706            0.0000000000
     26048      8683  TIP3      H1            -37.3090205720      -49.1342924159        2.6982836648  W2        8706            0.0000000000
     26049      8683  TIP3      H2            -38.7867505720      -49.4450324159        2.5904536648  W2        8706            0.0000000000
     26050      8684  TIP3      OH2           -32.2525505720      -46.9604324159        7.3079936648  W2        8707            0.0000000000
     26051      8684  TIP3      H1            -32.4935505720      -46.0349924159        7.3495236648  W2        8707            0.0000000000
     26052      8684  TIP3      H2            -32.9931905720      -47.4193024159        7.7043836648  W2        8707            0.0000000000
     26053      8685  TIP3      OH2           -31.7378905720      -42.8110724159       13.6231036648  W2        8708            0.0000000000
     26054      8685  TIP3      H1            -31.3754205720      -41.9565124159       13.3895436648  W2        8708            0.0000000000
     26055      8685  TIP3      H2            -31.2063705720      -43.1029124159       14.3637336648  W2        8708            0.0000000000
     26056      8686  TIP3      OH2           -33.5694705720      -41.9386724159        6.8532136648  W2        8709            0.0000000000
     26057      8686  TIP3      H1            -34.5194205720      -41.8329324159        6.9045436648  W2        8709            0.0000000000
     26058      8686  TIP3      H2            -33.2176605720      -41.1179324159        7.1979636648  W2        8709            0.0000000000
     26059      8687  TIP3      OH2           -28.1938105720      -46.7120024159       13.3236636648  W2        8710            0.0000000000
     26060      8687  TIP3      H1            -28.6196805720      -46.9398324159       14.1500636648  W2        8710            0.0000000000
     26061      8687  TIP3      H2            -27.6132305720      -47.4508224159       13.1411936648  W2        8710            0.0000000000
     26062      8688  TIP3      OH2           -25.9909205720      -45.7829524159        2.3975636648  W2        8711            0.0000000000
     26063      8688  TIP3      H1            -25.6376105720      -46.1629724159        3.2019136648  W2        8711            0.0000000000
     26064      8688  TIP3      H2            -26.9395705720      -45.8764724159        2.4844936648  W2        8711            0.0000000000
     26065      8689  TIP3      OH2           -25.5353905720      -42.1600524159       15.7931436648  W2        8712            0.0000000000
     26066      8689  TIP3      H1            -26.1370705720      -42.7157624159       15.2977736648  W2        8712            0.0000000000
     26067      8689  TIP3      H2            -25.2540205720      -41.4930724159       15.1668836648  W2        8712            0.0000000000
     26068      8690  TIP3      OH2           -21.4874805720      -41.3037024159        2.5985836648  W2        8713            0.0000000000
     26069      8690  TIP3      H1            -20.7436905720      -40.7176524159        2.4587436648  W2        8713            0.0000000000
     26070      8690  TIP3      H2            -22.1816705720      -40.7351224159        2.9318236648  W2        8713            0.0000000000
     26071      8691  TIP3      OH2           -37.4128005720      -54.9272824159       15.2004036648  W2        8714            0.0000000000
     26072      8691  TIP3      H1            -38.3055705720      -54.5887424159       15.1328036648  W2        8714            0.0000000000
     26073      8691  TIP3      H2            -37.5115205720      -55.7826724159       15.6184836648  W2        8714            0.0000000000
     26074      8692  TIP3      OH2           -25.1249905720      -47.1107524159        4.6243536648  W2        8715            0.0000000000
     26075      8692  TIP3      H1            -25.4022305720      -47.8388224159        5.1804636648  W2        8715            0.0000000000
     26076      8692  TIP3      H2            -24.1976905720      -46.9915524159        4.8296136648  W2        8715            0.0000000000
     26077      8693  TIP3      OH2           -37.7616005720      -43.1228424159       13.6353436648  W2        8716            0.0000000000
     26078      8693  TIP3      H1            -37.5445705720      -44.0546024159       13.6043136648  W2        8716            0.0000000000
     26079      8693  TIP3      H2            -37.5152505720      -42.8483424159       14.5186236648  W2        8716            0.0000000000
     26080      8694  TIP3      OH2           -31.9001405720      -44.6713424159        0.8445636648  W2        8717            0.0000000000
     26081      8694  TIP3      H1            -31.6611605720      -45.4195324159        0.2974536648  W2        8717            0.0000000000
     26082      8694  TIP3      H2            -32.1690105720      -45.0591724159        1.6773436648  W2        8717            0.0000000000
     26083      8695  TIP3      OH2           -32.9630805720      -45.1009624159        3.3008236648  W2        8718            0.0000000000
     26084      8695  TIP3      H1            -32.8162805720      -45.6209824159        4.0909136648  W2        8718            0.0000000000
     26085      8695  TIP3      H2            -32.9659105720      -44.1942024159        3.6074136648  W2        8718            0.0000000000
     26086      8696  TIP3      OH2           -36.5099705720      -47.8486324159        3.8113636648  W2        8719            0.0000000000
     26087      8696  TIP3      H1            -37.1960405720      -47.4963824159        4.3783336648  W2        8719            0.0000000000
     26088      8696  TIP3      H2            -35.9871805720      -47.0856724159        3.5647936648  W2        8719            0.0000000000
     26089      8697  TIP3      OH2           -28.6784605720      -55.1862524159       14.0902636648  W2        8720            0.0000000000
     26090      8697  TIP3      H1            -27.9796705720      -55.1123824159       14.7402336648  W2        8720            0.0000000000
     26091      8697  TIP3      H2            -29.0593205720      -56.0507524159       14.2445536648  W2        8720            0.0000000000
     26092      8698  TIP3      OH2           -27.8939705720      -55.5340824159        5.1874936648  W2        8721            0.0000000000
     26093      8698  TIP3      H1            -27.6741405720      -55.0625424159        4.3840336648  W2        8721            0.0000000000
     26094      8698  TIP3      H2            -27.3355705720      -55.1398224159        5.8575536648  W2        8721            0.0000000000
     26095      8699  TIP3      OH2           -30.2253605720      -43.4036024159        4.0502436648  W2        8722            0.0000000000
     26096      8699  TIP3      H1            -31.0417505720      -42.9066324159        4.1026736648  W2        8722            0.0000000000
     26097      8699  TIP3      H2            -29.6957305720      -42.9282524159        3.4101236648  W2        8722            0.0000000000
     26098      8700  TIP3      OH2           -30.6939805720      -53.8062024159        6.0223336648  W2        8723            0.0000000000
     26099      8700  TIP3      H1            -29.8817205720      -53.3018824159        6.0685036648  W2        8723            0.0000000000
     26100      8700  TIP3      H2            -30.9386805720      -53.9512324159        6.9362936648  W2        8723            0.0000000000
     26101      8701  TIP3      OH2           -30.1583405720      -52.8199324159       15.2069936648  W2        8724            0.0000000000
     26102      8701  TIP3      H1            -30.0393105720      -52.2463924159       15.9640336648  W2        8724            0.0000000000
     26103      8701  TIP3      H2            -29.5028805720      -53.5079924159       15.3217736648  W2        8724            0.0000000000
     26104      8702  TIP3      OH2           -29.8103105720      -56.7249024159        6.9604436648  W2        8725            0.0000000000
     26105      8702  TIP3      H1            -30.1569605720      -56.1078424159        7.6048736648  W2        8725            0.0000000000
     26106      8702  TIP3      H2            -29.1516205720      -56.2243324159        6.4789936648  W2        8725            0.0000000000
     26107      8703  TIP3      OH2           -32.8870505720      -42.3598824159        4.0319336648  W2        8726            0.0000000000
     26108      8703  TIP3      H1            -32.7261805720      -41.5601324159        3.5311936648  W2        8726            0.0000000000
     26109      8703  TIP3      H2            -33.0842705720      -42.0532824159        4.9169936648  W2        8726            0.0000000000
     26110      8704  TIP3      OH2           -34.1526105720      -55.6619624159        3.6476936648  W2        8727            0.0000000000
     26111      8704  TIP3      H1            -34.2361305720      -54.7736524159        3.9943336648  W2        8727            0.0000000000
     26112      8704  TIP3      H2            -33.2625805720      -55.9272924159        3.8793736648  W2        8727            0.0000000000
     26113      8705  TIP3      OH2           -23.9537605720      -54.9129024159       16.0419636648  W2        8728            0.0000000000
     26114      8705  TIP3      H1            -24.8701805720      -54.6507324159       15.9543336648  W2        8728            0.0000000000
     26115      8705  TIP3      H2            -23.6182605720      -54.9160024159       15.1454936648  W2        8728            0.0000000000
     26116      8706  TIP3      OH2           -25.3516605720      -51.1628024159       10.1376936648  W2        8729            0.0000000000
     26117      8706  TIP3      H1            -26.1492205720      -51.5777824159        9.8091936648  W2        8729            0.0000000000
     26118      8706  TIP3      H2            -24.9065505720      -51.8534324159       10.6287436648  W2        8729            0.0000000000
     26119      8707  TIP3      OH2           -35.8940805720      -45.2347424159        2.7081436648  W2        8730            0.0000000000
     26120      8707  TIP3      H1            -35.3019305720      -44.5352624159        2.9843836648  W2        8730            0.0000000000
     26121      8707  TIP3      H2            -35.4347805720      -45.6677924159        1.9886036648  W2        8730            0.0000000000
     26122      8708  TIP3      OH2           -37.5781605720      -52.5704424159        1.8240836648  W2        8731            0.0000000000
     26123      8708  TIP3      H1            -37.6229005720      -51.6311324159        2.0027836648  W2        8731            0.0000000000
     26124      8708  TIP3      H2            -38.4658405720      -52.8059524159        1.5542936648  W2        8731            0.0000000000
     26125      8709  TIP3      OH2           -24.2652005720      -41.9065524159       11.7600436648  W2        8732            0.0000000000
     26126      8709  TIP3      H1            -24.4207705720      -41.2281124159       11.1029736648  W2        8732            0.0000000000
     26127      8709  TIP3      H2            -23.3325605720      -41.8346224159       11.9631036648  W2        8732            0.0000000000
     26128      8710  TIP3      OH2           -36.7699605720      -57.7887824159       10.4971836648  W2        8733            0.0000000000
     26129      8710  TIP3      H1            -36.9989805720      -57.7295324159        9.5696836648  W2        8733            0.0000000000
     26130      8710  TIP3      H2            -37.2126205720      -58.5802324159       10.8035936648  W2        8733            0.0000000000
     26131      8711  TIP3      OH2           -37.8396305720      -43.8480724159        6.6577636648  W2        8734            0.0000000000
     26132      8711  TIP3      H1            -38.6717705720      -43.3758024159        6.6849036648  W2        8734            0.0000000000
     26133      8711  TIP3      H2            -37.2938005720      -43.3383124159        6.0590736648  W2        8734            0.0000000000
     26134      8712  TIP3      OH2           -29.8619605720      -42.8082024159        0.9831636648  W2        8737            0.0000000000
     26135      8712  TIP3      H1            -30.5058605720      -43.4393424159        1.3045336648  W2        8737            0.0000000000
     26136      8712  TIP3      H2            -29.1001305720      -43.3394024159        0.7515136648  W2        8737            0.0000000000
     26137      8713  TIP3      OH2           -25.2576705720      -42.9912124159        1.2169636648  W2        8739            0.0000000000
     26138      8713  TIP3      H1            -24.9746305720      -43.7856924159        1.6696536648  W2        8739            0.0000000000
     26139      8713  TIP3      H2            -24.5178805720      -42.7581124159        0.6560736648  W2        8739            0.0000000000
     26140      8714  TIP3      OH2           -34.3029405720      -47.0817224159        1.0744536648  W2        8741            0.0000000000
     26141      8714  TIP3      H1            -34.2385305720      -47.8757624159        1.6050936648  W2        8741            0.0000000000
     26142      8714  TIP3      H2            -33.6500205720      -47.2004424159        0.3846536648  W2        8741            0.0000000000
     26143      8715  TIP3      OH2           -28.9506005720      -46.0345524159        0.8102536648  W2        8743            0.0000000000
     26144      8715  TIP3      H1            -29.2191905720      -45.8543424159        1.7111436648  W2        8743            0.0000000000
     26145      8715  TIP3      H2            -29.1570405720      -46.9599324159        0.6788336648  W2        8743            0.0000000000
     26146      8716  TIP3      OH2           -26.2541805720      -47.5397524159       15.7578636648  W2        8744            0.0000000000
     26147      8716  TIP3      H1            -25.5087005720      -46.9513824159       15.6382636648  W2        8744            0.0000000000
     26148      8716  TIP3      H2            -27.0115005720      -46.9577824159       15.8211736648  W2        8744            0.0000000000
     26149      8717  TIP3      OH2           -33.1535605720      -49.1091024159        3.3802536648  W2        8746            0.0000000000
     26150      8717  TIP3      H1            -33.6133605720      -49.5932724159        4.0661036648  W2        8746            0.0000000000
     26151      8717  TIP3      H2            -32.8986905720      -49.7775624159        2.7443036648  W2        8746            0.0000000000
     26152      8718  TIP3      OH2           -33.8646305720      -51.2163924159       15.7362136648  W2        8747            0.0000000000
     26153      8718  TIP3      H1            -34.4830205720      -50.5417324159       16.0166836648  W2        8747            0.0000000000
     26154      8718  TIP3      H2            -33.5205105720      -50.8950024159       14.9028336648  W2        8747            0.0000000000
     26155      8719  TIP3      OH2           -32.0825205720      -50.8659224159        1.6425736648  W2        8748            0.0000000000
     26156      8719  TIP3      H1            -32.2630205720      -51.0208024159        0.7154036648  W2        8748            0.0000000000
     26157      8719  TIP3      H2            -31.1324705720      -50.7580524159        1.6873636648  W2        8748            0.0000000000
     26158      8720  TIP3      OH2           -22.6926905720      -48.5115024159        1.0883836648  W2        8750            0.0000000000
     26159      8720  TIP3      H1            -22.9662105720      -48.9359524159        0.2752136648  W2        8750            0.0000000000
     26160      8720  TIP3      H2            -22.6532805720      -47.5800524159        0.8714236648  W2        8750            0.0000000000
     26161      8721  TIP3      OH2           -33.5252605720      -53.8613124159       16.8185236648  W2        8751            0.0000000000
     26162      8721  TIP3      H1            -33.3751705720      -54.5901824159       16.2164936648  W2        8751            0.0000000000
     26163      8721  TIP3      H2            -33.5230205720      -53.0841424159       16.2597436648  W2        8751            0.0000000000
     26164      8722  TIP3      OH2           -33.1126905720      -55.4917324159       14.3112636648  W2        8752            0.0000000000
     26165      8722  TIP3      H1            -32.5769405720      -55.0400624159       13.6591936648  W2        8752            0.0000000000
     26166      8722  TIP3      H2            -33.9647305720      -55.5997524159       13.8886736648  W2        8752            0.0000000000
     26167      8723  TIP3      OH2           -31.5308505720      -50.0521124159       14.5507836648  W2        8753            0.0000000000
     26168      8723  TIP3      H1            -30.7803705720      -50.2083624159       13.9775636648  W2        8753            0.0000000000
     26169      8723  TIP3      H2            -31.8700205720      -49.2004524159       14.2753336648  W2        8753            0.0000000000
     26170      8724  TIP3      OH2           -25.7985105720      -49.4484124159       17.6565836648  W2        8755            0.0000000000
     26171      8724  TIP3      H1            -26.0800105720      -48.7389524159       17.0789636648  W2        8755            0.0000000000
     26172      8724  TIP3      H2            -24.8560805720      -49.5211124159       17.5057036648  W2        8755            0.0000000000
     26173      8725  TIP3      OH2           -32.3071405720      -58.0351624159       14.7426236648  W2        8757            0.0000000000
     26174      8725  TIP3      H1            -32.4051805720      -57.0888424159       14.6372436648  W2        8757            0.0000000000
     26175      8725  TIP3      H2            -33.0495205720      -58.4077824159       14.2669736648  W2        8757            0.0000000000
     26176      8726  TIP3      OH2           -28.3274305720      -54.5862724159       17.3818136648  W2        8759            0.0000000000
     26177      8726  TIP3      H1            -29.2748905720      -54.5543024159       17.5141436648  W2        8759            0.0000000000
     26178      8726  TIP3      H2            -28.0147605720      -55.2115624159       18.0356336648  W2        8759            0.0000000000
     26179      8727  TIP3      OH2           -32.0853305720      -58.7414224159       17.4139036648  W2        8762            0.0000000000
     26180      8727  TIP3      H1            -31.3734905720      -59.3812024159       17.3998136648  W2        8762            0.0000000000
     26181      8727  TIP3      H2            -32.1862905720      -58.4745924159       16.5002136648  W2        8762            0.0000000000
     26182      8728  TIP3      OH2           -32.1853505720      -40.1755524159        2.6439336648  W2        8764            0.0000000000
     26183      8728  TIP3      H1            -31.2522805720      -40.0176824159        2.7877736648  W2        8764            0.0000000000
     26184      8728  TIP3      H2            -32.4494705720      -39.5002524159        2.0190836648  W2        8764            0.0000000000
     26185      8729  TIP3      OH2           -38.6168605720      -45.5391724159        2.1267436648  W2        8765            0.0000000000
     26186      8729  TIP3      H1            -37.7029405720      -45.4602824159        2.4001336648  W2        8765            0.0000000000
     26187      8729  TIP3      H2            -38.6095505720      -46.2262124159        1.4603036648  W2        8765            0.0000000000
     26188      8730  TIP3      OH2           -39.9678005720      -40.1463224159        7.2041336648  W2        8766            0.0000000000
     26189      8730  TIP3      H1            -40.6150905720      -40.6081524159        6.6712536648  W2        8766            0.0000000000
     26190      8730  TIP3      H2            -39.6133405720      -40.8179924159        7.7867536648  W2        8766            0.0000000000
     26191      8731  TIP3      OH2           -39.0978805720      -42.0656224159        9.0087536648  W2        8767            0.0000000000
     26192      8731  TIP3      H1            -39.4322005720      -42.9458924159        9.1807736648  W2        8767            0.0000000000
     26193      8731  TIP3      H2            -38.8756405720      -41.7201224159        9.8733136648  W2        8767            0.0000000000
     26194      8732  TIP3      OH2           -21.5494005720      -41.2559824159       11.9892336648  W2        8768            0.0000000000
     26195      8732  TIP3      H1            -21.5707305720      -41.0711424159       12.9281736648  W2        8768            0.0000000000
     26196      8732  TIP3      H2            -20.8587805720      -40.6875824159       11.6483736648  W2        8768            0.0000000000
     26197      8733  TIP3      OH2           -21.9861105720      -41.6888724159       14.9111436648  W2        8769            0.0000000000
     26198      8733  TIP3      H1            -22.4732405720      -42.4244624159       14.5398836648  W2        8769            0.0000000000
     26199      8733  TIP3      H2            -21.4368405720      -42.0824824159       15.5890836648  W2        8769            0.0000000000
     26200      8734  TIP3      OH2           -22.2344105720      -47.6426924159        5.0634236648  W2        8771            0.0000000000
     26201      8734  TIP3      H1            -21.3842705720      -47.2216024159        5.1905836648  W2        8771            0.0000000000
     26202      8734  TIP3      H2            -22.2289005720      -48.3826824159        5.6705636648  W2        8771            0.0000000000
     26203      8735  TIP3      OH2           -21.8398505720      -49.5889524159        6.8869936648  W2        8772            0.0000000000
     26204      8735  TIP3      H1            -22.5663905720      -50.0686924159        7.2847536648  W2        8772            0.0000000000
     26205      8735  TIP3      H2            -21.2585205720      -49.3834824159        7.6191536648  W2        8772            0.0000000000
     26206      8736  TIP3      OH2           -22.0807305720      -46.8042024159       11.8347536648  W2        8773            0.0000000000
     26207      8736  TIP3      H1            -21.2473105720      -47.1822024159       11.5541136648  W2        8773            0.0000000000
     26208      8736  TIP3      H2            -21.9687005720      -45.8610824159       11.7156636648  W2        8773            0.0000000000
     26209      8737  TIP3      OH2           -23.5945005720      -43.9264524159       14.1415936648  W2        8774            0.0000000000
     26210      8737  TIP3      H1            -24.2419705720      -43.6013024159       14.7671136648  W2        8774            0.0000000000
     26211      8737  TIP3      H2            -24.1121005720      -44.3666824159       13.4674236648  W2        8774            0.0000000000
     26212      8738  TIP3      OH2           -21.5715405720      -49.6881024159        3.2781236648  W2        8775            0.0000000000
     26213      8738  TIP3      H1            -22.0934305720      -49.3316924159        2.5592136648  W2        8775            0.0000000000
     26214      8738  TIP3      H2            -21.6046205720      -49.0133224159        3.9562136648  W2        8775            0.0000000000
     26215      8739  TIP3      OH2           -23.2226405720      -52.4485424159        1.8288336648  W2        8776            0.0000000000
     26216      8739  TIP3      H1            -23.1262005720      -51.7818424159        1.1488036648  W2        8776            0.0000000000
     26217      8739  TIP3      H2            -23.3626805720      -53.2639124159        1.3473836648  W2        8776            0.0000000000
     26218      8740  TIP3      OH2           -24.0531705720      -51.0683024159        7.4498636648  W2        8777            0.0000000000
     26219      8740  TIP3      H1            -24.2032905720      -52.0134424159        7.4296436648  W2        8777            0.0000000000
     26220      8740  TIP3      H2            -24.4067205720      -50.7871624159        8.2937736648  W2        8777            0.0000000000
     26221      8741  TIP3      OH2           -39.0179305720      -48.9900824159       11.4602436648  W2        8778            0.0000000000
     26222      8741  TIP3      H1            -38.8336405720      -49.0719124159       10.5245336648  W2        8778            0.0000000000
     26223      8741  TIP3      H2            -38.1686405720      -49.1143824159       11.8838836648  W2        8778            0.0000000000
     26224      8742  TIP3      OH2           -23.1968805720      -49.0979724159       17.0886936648  W2        8779            0.0000000000
     26225      8742  TIP3      H1            -22.6141505720      -49.8327424159       17.2804136648  W2        8779            0.0000000000
     26226      8742  TIP3      H2            -22.6329505720      -48.3259424159       17.1352736648  W2        8779            0.0000000000
     26227      8743  TIP3      OH2           -21.7001705720      -51.1953924159       17.7732336648  W2        8780            0.0000000000
     26228      8743  TIP3      H1            -22.5635005720      -51.5741824159       17.6077036648  W2        8780            0.0000000000
     26229      8743  TIP3      H2            -21.0958005720      -51.9339124159       17.6988136648  W2        8780            0.0000000000
     26230      8744  TIP3      OH2           -23.9752605720      -55.0405624159        0.9463836648  W2        8781            0.0000000000
     26231      8744  TIP3      H1            -23.3646805720      -55.4118824159        1.5832036648  W2        8781            0.0000000000
     26232      8744  TIP3      H2            -24.8121105720      -55.4618724159        1.1423836648  W2        8781            0.0000000000
     26233      8745  TIP3      OH2           -24.3426905720      -53.4857224159        5.9123736648  W2        8782            0.0000000000
     26234      8745  TIP3      H1            -24.0629805720      -54.3926824159        6.0365436648  W2        8782            0.0000000000
     26235      8745  TIP3      H2            -23.5835205720      -53.0515724159        5.5232936648  W2        8782            0.0000000000
     26236      8746  TIP3      OH2           -23.7308605720      -52.9039824159       11.3482636648  W2        8783            0.0000000000
     26237      8746  TIP3      H1            -22.7980605720      -52.6919924159       11.3138636648  W2        8783            0.0000000000
     26238      8746  TIP3      H2            -23.9661105720      -52.8027724159       12.2705636648  W2        8783            0.0000000000
     26239      8747  TIP3      OH2           -23.7016705720      -52.1674524159       14.1242036648  W2        8784            0.0000000000
     26240      8747  TIP3      H1            -24.5445405720      -51.8994124159       14.4901836648  W2        8784            0.0000000000
     26241      8747  TIP3      H2            -23.2592405720      -51.3452624159       13.9133136648  W2        8784            0.0000000000
     26242      8748  TIP3      OH2           -39.4204505720      -53.7195824159       17.6011236648  W2        8785            0.0000000000
     26243      8748  TIP3      H1            -38.5009605720      -53.8417524159       17.8374336648  W2        8785            0.0000000000
     26244      8748  TIP3      H2            -39.8700005720      -54.4696124159       17.9904736648  W2        8785            0.0000000000
     26245      8749  TIP3      OH2           -23.7292105720      -56.2227924159        5.9605736648  W2        8787            0.0000000000
     26246      8749  TIP3      H1            -23.5467105720      -56.6716424159        6.7860736648  W2        8787            0.0000000000
     26247      8749  TIP3      H2            -24.3289205720      -56.8073524159        5.4970336648  W2        8787            0.0000000000
     26248      8750  TIP3      OH2           -38.1992005720      -55.4074224159       10.4924136648  W2        8788            0.0000000000
     26249      8750  TIP3      H1            -37.7540405720      -56.1991724159       10.7943836648  W2        8788            0.0000000000
     26250      8750  TIP3      H2            -37.7329005720      -54.6909024159       10.9229736648  W2        8788            0.0000000000
     26251      8751  TIP3      OH2           -39.8951705720      -52.4081224159       11.5614336648  W2        8789            0.0000000000
     26252      8751  TIP3      H1            -39.4031905720      -52.6290724159       10.7706336648  W2        8789            0.0000000000
     26253      8751  TIP3      H2            -39.5330805720      -51.5677824159       11.8423836648  W2        8789            0.0000000000
     26254      8752  TIP3      OH2           -21.8625905720      -56.1549824159        2.4886036648  W2        8791            0.0000000000
     26255      8752  TIP3      H1            -21.4503305720      -56.8764124159        2.0134036648  W2        8791            0.0000000000
     26256      8752  TIP3      H2            -21.1809405720      -55.4855224159        2.5470336648  W2        8791            0.0000000000
     26257      8753  TIP3      OH2           -39.5815205720      -56.1502124159        5.6156736648  W2        8792            0.0000000000
     26258      8753  TIP3      H1            -40.5066805720      -55.9415524159        5.4862236648  W2        8792            0.0000000000
     26259      8753  TIP3      H2            -39.1275305720      -55.6661324159        4.9259036648  W2        8792            0.0000000000
     26260      8754  TIP3      OH2           -24.8108005720      -41.1660424159        7.5614136648  W2        8793            0.0000000000
     26261      8754  TIP3      H1            -24.1585105720      -41.5138324159        6.9533236648  W2        8793            0.0000000000
     26262      8754  TIP3      H2            -24.3004205720      -40.6777224159        8.2073836648  W2        8793            0.0000000000
     26263      8755  TIP3      OH2           -39.6179805720      -57.4123124159       13.9599236648  W2        8794            0.0000000000
     26264      8755  TIP3      H1            -40.2829305720      -57.6582824159       14.6030136648  W2        8794            0.0000000000
     26265      8755  TIP3      H2            -40.0608505720      -56.7902724159       13.3827236648  W2        8794            0.0000000000
     26266      8756  TIP3      OH2           -34.4717605720      -43.2627824159       14.3629036648  W2        8796            0.0000000000
     26267      8756  TIP3      H1            -34.8966505720      -42.4529324159       14.0803636648  W2        8796            0.0000000000
     26268      8756  TIP3      H2            -33.5674805720      -43.1773724159       14.0608836648  W2        8796            0.0000000000
     26269      8757  TIP3      OH2           -30.1606205720      -41.8637824159       17.3222736648  W2        8797            0.0000000000
     26270      8757  TIP3      H1            -29.9758705720      -42.1971724159       18.2003036648  W2        8797            0.0000000000
     26271      8757  TIP3      H2            -29.3141705720      -41.5539224159       17.0001936648  W2        8797            0.0000000000
     26272      8758  TIP3      OH2           -27.8155805720      -40.5778924159       16.5664136648  W2        8798            0.0000000000
     26273      8758  TIP3      H1            -27.1386905720      -41.2106624159       16.3263336648  W2        8798            0.0000000000
     26274      8758  TIP3      H2            -27.4937005720      -40.1768424159       17.3737436648  W2        8798            0.0000000000
     26275      8759  TIP3      OH2           -22.8982005720      -57.9883424159       15.6459136648  W2        8799            0.0000000000
     26276      8759  TIP3      H1            -23.7108505720      -57.6633124159       15.2583836648  W2        8799            0.0000000000
     26277      8759  TIP3      H2            -22.6653505720      -58.7484924159       15.1128236648  W2        8799            0.0000000000
     26278      8760  TIP3      OH2           -37.0700905720      -40.0063924159       14.4104336648  W2        8800            0.0000000000
     26279      8760  TIP3      H1            -37.7904505720      -39.5662924159       13.9592036648  W2        8800            0.0000000000
     26280      8760  TIP3      H2            -37.4356905720      -40.2569224159       15.2588336648  W2        8800            0.0000000000
     26281      8761  TIP3      OH2           -34.6028305720      -40.4060024159       13.4401536648  W2        8801            0.0000000000
     26282      8761  TIP3      H1            -35.4676105720      -40.3341524159       13.8441636648  W2        8801            0.0000000000
     26283      8761  TIP3      H2            -34.6579305720      -39.8592724159       12.6564036648  W2        8801            0.0000000000
     26284      8762  TIP3      OH2           -29.8922705720      -40.5181124159       12.6157536648  W2        8802            0.0000000000
     26285      8762  TIP3      H1            -30.3488705720      -39.9891424159       11.9615936648  W2        8802            0.0000000000
     26286      8762  TIP3      H2            -29.7294705720      -39.9149724159       13.3409836648  W2        8802            0.0000000000
     26287      8763  TIP3      OH2           -27.5646405720      -41.6401524159       13.5607836648  W2        8803            0.0000000000
     26288      8763  TIP3      H1            -28.4692705720      -41.4751324159       13.2949936648  W2        8803            0.0000000000
     26289      8763  TIP3      H2            -27.1357805720      -40.7869324159       13.4951236648  W2        8803            0.0000000000
     26290      8764  TIP3      OH2           -24.9604505720      -40.0702424159       13.8555636648  W2        8804            0.0000000000
     26291      8764  TIP3      H1            -25.1422505720      -39.1543524159       13.6450536648  W2        8804            0.0000000000
     26292      8764  TIP3      H2            -24.7836705720      -40.4805324159       13.0090236648  W2        8804            0.0000000000
     26293      8765  TIP3      OH2           -37.6552805720      -41.3831424159       11.3206136648  W2        8805            0.0000000000
     26294      8765  TIP3      H1            -37.6736805720      -41.8086324159       12.1778436648  W2        8805            0.0000000000
     26295      8765  TIP3      H2            -36.8504905720      -41.7016424159       10.9118336648  W2        8805            0.0000000000
     26296      8766  TIP3      OH2           -35.5139705720      -42.6732724159        9.9756036648  W2        8806            0.0000000000
     26297      8766  TIP3      H1            -35.7329005720      -43.5895324159       10.1452036648  W2        8806            0.0000000000
     26298      8766  TIP3      H2            -34.6897505720      -42.5332324159       10.4417436648  W2        8806            0.0000000000
     26299      8767  TIP3      OH2           -32.9767205720      -42.2033424159       10.8244036648  W2        8807            0.0000000000
     26300      8767  TIP3      H1            -32.7641505720      -43.0914424159       10.5374936648  W2        8807            0.0000000000
     26301      8767  TIP3      H2            -32.9122105720      -42.2375724159       11.7788036648  W2        8807            0.0000000000
     26302      8768  TIP3      OH2           -29.4683505720      -56.5392824159        9.9687336648  W2        8808            0.0000000000
     26303      8768  TIP3      H1            -30.1426705720      -57.1687224159       10.2243136648  W2        8808            0.0000000000
     26304      8768  TIP3      H2            -28.9044305720      -57.0233924159        9.3655236648  W2        8808            0.0000000000
     26305      8769  TIP3      OH2           -24.3256305720      -58.4318824159       10.0814436648  W2        8809            0.0000000000
     26306      8769  TIP3      H1            -23.7218705720      -57.8843424159        9.5795436648  W2        8809            0.0000000000
     26307      8769  TIP3      H2            -25.1954305720      -58.1128424159        9.8408536648  W2        8809            0.0000000000
     26308      8770  TIP3      OH2           -22.5985905720      -57.2930124159        8.4145336648  W2        8810            0.0000000000
     26309      8770  TIP3      H1            -21.9868405720      -57.8074424159        7.8878936648  W2        8810            0.0000000000
     26310      8770  TIP3      H2            -22.2162505720      -56.4158024159        8.4379736648  W2        8810            0.0000000000
     26311      8771  TIP3      OH2           -37.1416005720      -57.9052524159        7.7907236648  W2        8811            0.0000000000
     26312      8771  TIP3      H1            -37.9186205720      -58.1397624159        7.2833136648  W2        8811            0.0000000000
     26313      8771  TIP3      H2            -36.6112405720      -58.7020424159        7.7995236648  W2        8811            0.0000000000
     26314      8772  TIP3      OH2           -38.3052605720      -58.1074424159        3.5943336648  W2        8812            0.0000000000
     26315      8772  TIP3      H1            -37.8661905720      -57.4963924159        3.0026836648  W2        8812            0.0000000000
     26316      8772  TIP3      H2            -38.9390205720      -57.5690324159        4.0683336648  W2        8812            0.0000000000
     26317      8773  TIP3      OH2           -32.5623405720      -57.9785424159        7.6040336648  W2        8813            0.0000000000
     26318      8773  TIP3      H1            -31.6880005720      -57.5901124159        7.5744636648  W2        8813            0.0000000000
     26319      8773  TIP3      H2            -32.6982605720      -58.1937624159        8.5267536648  W2        8813            0.0000000000
     26320      8774  TIP3      OH2           -27.0055005720      -57.9485624159        9.2532036648  W2        8814            0.0000000000
     26321      8774  TIP3      H1            -26.9293405720      -57.8534024159        8.3038036648  W2        8814            0.0000000000
     26322      8774  TIP3      H2            -27.2805805720      -58.8562724159        9.3821136648  W2        8814            0.0000000000
     26323      8775  TIP3      OH2           -25.6522405720      -57.9227824159        4.9457036648  W2        8815            0.0000000000
     26324      8775  TIP3      H1            -26.3551305720      -57.3078624159        4.7358436648  W2        8815            0.0000000000
     26325      8775  TIP3      H2            -26.0971005720      -58.7601124159        5.0767936648  W2        8815            0.0000000000
     26326      8776  TIP3      OH2           -38.4043105720      -42.1592224159        4.4918436648  W2        8816            0.0000000000
     26327      8776  TIP3      H1            -39.0893205720      -42.1973324159        3.8243536648  W2        8816            0.0000000000
     26328      8776  TIP3      H2            -38.4005905720      -41.2464624159        4.7800536648  W2        8816            0.0000000000
     26329      8777  TIP3      OH2           -36.4443505720      -56.1912924159        2.0367436648  W2        8817            0.0000000000
     26330      8777  TIP3      H1            -35.9530105720      -56.8210524159        1.5092936648  W2        8817            0.0000000000
     26331      8777  TIP3      H2            -35.8207205720      -55.8953524159        2.6998636648  W2        8817            0.0000000000
     26332      8778  TIP3      OH2           -31.4183405720      -55.8981424159        4.4937936648  W2        8818            0.0000000000
     26333      8778  TIP3      H1            -31.2402105720      -56.5448224159        5.1766536648  W2        8818            0.0000000000
     26334      8778  TIP3      H2            -31.4717205720      -55.0643724159        4.9609036648  W2        8818            0.0000000000
     26335      8779  TIP3      OH2           -29.5399605720      -40.9497324159        2.8894636648  W2        8819            0.0000000000
     26336      8779  TIP3      H1            -28.6739405720      -40.5829924159        2.7112836648  W2        8819            0.0000000000
     26337      8779  TIP3      H2            -29.7866805720      -41.3889324159        2.0755436648  W2        8819            0.0000000000
     26338      8780  TIP3      OH2           -22.8310005720      -41.3867024159        5.5685736648  W2        8820            0.0000000000
     26339      8780  TIP3      H1            -23.0252905720      -42.1344924159        5.0035336648  W2        8820            0.0000000000
     26340      8780  TIP3      H2            -22.8699905720      -40.6286924159        4.9853636648  W2        8820            0.0000000000
     26341      8781  TIP3      OH2           -37.1838005720      -57.3910624159       17.3083436648  W2        8821            0.0000000000
     26342      8781  TIP3      H1            -37.5499805720      -58.1568024159       17.7508136648  W2        8821            0.0000000000
     26343      8781  TIP3      H2            -36.2709505720      -57.3620424159       17.5948536648  W2        8821            0.0000000000
     26344      8782  TIP3      OH2           -36.5861905720      -41.2391424159        1.5170536648  W2        8823            0.0000000000
     26345      8782  TIP3      H1            -36.8537305720      -40.9528524159        2.3903636648  W2        8823            0.0000000000
     26346      8782  TIP3      H2            -35.8149305720      -41.7852224159        1.6693036648  W2        8823            0.0000000000
     26347      8783  TIP3      OH2           -23.6133805720      -42.6354624159       17.7187536648  W2        8825            0.0000000000
     26348      8783  TIP3      H1            -24.3951905720      -42.8216624159       17.1988136648  W2        8825            0.0000000000
     26349      8783  TIP3      H2            -23.6853905720      -41.7060324159       17.9360036648  W2        8825            0.0000000000
     26350      8784  TIP3      OH2            -9.2073405720      -48.7490224159        7.7494736648  W2        8826            0.0000000000
     26351      8784  TIP3      H1             -9.1182305720      -47.8052024159        7.6171836648  W2        8826            0.0000000000
     26352      8784  TIP3      H2             -9.8455805720      -49.0243824159        7.0914136648  W2        8826            0.0000000000
     26353      8785  TIP3      OH2           -10.2742105720      -49.4939524159       11.1682936648  W2        8827            0.0000000000
     26354      8785  TIP3      H1            -10.3124605720      -50.1403224159       11.8732536648  W2        8827            0.0000000000
     26355      8785  TIP3      H2            -10.5965605720      -49.9605124159       10.3971636648  W2        8827            0.0000000000
     26356      8786  TIP3      OH2           -17.9057105720      -49.8797424159       12.7612836648  W2        8828            0.0000000000
     26357      8786  TIP3      H1            -17.8645005720      -50.5054124159       13.4845236648  W2        8828            0.0000000000
     26358      8786  TIP3      H2            -17.2029405720      -49.2558824159       12.9433236648  W2        8828            0.0000000000
     26359      8787  TIP3      OH2            -6.5681905720      -46.5549124159        9.4698036648  W2        8829            0.0000000000
     26360      8787  TIP3      H1             -7.0089205720      -47.2753124159        9.9203636648  W2        8829            0.0000000000
     26361      8787  TIP3      H2             -6.5812205720      -45.8341924159       10.0995736648  W2        8829            0.0000000000
     26362      8788  TIP3      OH2           -16.9824005720      -45.4298524159       11.2961936648  W2        8830            0.0000000000
     26363      8788  TIP3      H1            -17.3518805720      -46.2318024159       10.9266236648  W2        8830            0.0000000000
     26364      8788  TIP3      H2            -16.0412905720      -45.5983624159       11.3425336648  W2        8830            0.0000000000
     26365      8789  TIP3      OH2           -20.3723505720      -51.7695924159        6.6890736648  W2        8831            0.0000000000
     26366      8789  TIP3      H1            -20.8200105720      -50.9237224159        6.6707236648  W2        8831            0.0000000000
     26367      8789  TIP3      H2            -20.9332305720      -52.3491724159        6.1735836648  W2        8831            0.0000000000
     26368      8790  TIP3      OH2           -19.6617405720      -49.6076324159        8.8148736648  W2        8832            0.0000000000
     26369      8790  TIP3      H1            -19.4483905720      -50.3774724159        9.3421736648  W2        8832            0.0000000000
     26370      8790  TIP3      H2            -18.9239805720      -49.5179624159        8.2116336648  W2        8832            0.0000000000
     26371      8791  TIP3      OH2            -9.4566405720      -41.4507424159        9.6818436648  W2        8833            0.0000000000
     26372      8791  TIP3      H1             -8.8370005720      -42.1272724159        9.4087636648  W2        8833            0.0000000000
     26373      8791  TIP3      H2             -9.6649005720      -41.6686624159       10.5903336648  W2        8833            0.0000000000
     26374      8792  TIP3      OH2           -11.8847705720      -47.0618124159       11.5743936648  W2        8834            0.0000000000
     26375      8792  TIP3      H1            -11.5809805720      -47.7476724159       10.9798036648  W2        8834            0.0000000000
     26376      8792  TIP3      H2            -11.1633705720      -46.9429424159       12.1921936648  W2        8834            0.0000000000
     26377      8793  TIP3      OH2            -3.2217905720      -55.4602824159       12.4350136648  W2        8835            0.0000000000
     26378      8793  TIP3      H1             -3.1725705720      -54.8501624159       13.1709236648  W2        8835            0.0000000000
     26379      8793  TIP3      H2             -2.7962805720      -54.9991924159       11.7121236648  W2        8835            0.0000000000
     26380      8794  TIP3      OH2            -8.7440705720      -52.6675724159       11.9018736648  W2        8836            0.0000000000
     26381      8794  TIP3      H1             -8.6014805720      -53.6138724159       11.9220336648  W2        8836            0.0000000000
     26382      8794  TIP3      H2             -8.8501705720      -52.4605924159       10.9733636648  W2        8836            0.0000000000
     26383      8795  TIP3      OH2           -15.5892405720      -54.5659324159        9.1743536648  W2        8837            0.0000000000
     26384      8795  TIP3      H1            -15.5461305720      -53.7060824159        8.7559836648  W2        8837            0.0000000000
     26385      8795  TIP3      H2            -16.0468305720      -55.1184624159        8.5406736648  W2        8837            0.0000000000
     26386      8796  TIP3      OH2            -7.8669705720      -54.4353724159        7.5751836648  W2        8838            0.0000000000
     26387      8796  TIP3      H1             -7.2205405720      -54.7640524159        8.1999436648  W2        8838            0.0000000000
     26388      8796  TIP3      H2             -7.3570305720      -53.9174724159        6.9523236648  W2        8838            0.0000000000
     26389      8797  TIP3      OH2           -18.9690905720      -52.1693524159        9.9364936648  W2        8839            0.0000000000
     26390      8797  TIP3      H1            -18.3154305720      -52.7191824159       10.3685036648  W2        8839            0.0000000000
     26391      8797  TIP3      H2            -18.9451605720      -52.4434524159        9.0196936648  W2        8839            0.0000000000
     26392      8798  TIP3      OH2           -13.8126405720      -50.6192224159        9.1516436648  W2        8840            0.0000000000
     26393      8798  TIP3      H1            -13.1965405720      -51.1456824159        9.6610436648  W2        8840            0.0000000000
     26394      8798  TIP3      H2            -14.3987605720      -51.2593524159        8.7480036648  W2        8840            0.0000000000
     26395      8799  TIP3      OH2            -2.8303305720      -53.9823624159       14.6709936648  W2        8841            0.0000000000
     26396      8799  TIP3      H1             -3.5188705720      -53.3242924159       14.5756536648  W2        8841            0.0000000000
     26397      8799  TIP3      H2             -2.8148705720      -54.1795724159       15.6075336648  W2        8841            0.0000000000
     26398      8800  TIP3      OH2           -16.7790505720      -55.6480924159       13.2484336648  W2        8842            0.0000000000
     26399      8800  TIP3      H1            -16.9978805720      -55.1180324159       12.4820336648  W2        8842            0.0000000000
     26400      8800  TIP3      H2            -17.4469605720      -55.4215424159       13.8955736648  W2        8842            0.0000000000
     26401      8801  TIP3      OH2            -9.4100705720      -46.1479824159        6.7923436648  W2        8843            0.0000000000
     26402      8801  TIP3      H1             -9.7055605720      -46.4707524159        5.9410336648  W2        8843            0.0000000000
     26403      8801  TIP3      H2             -9.7342905720      -45.2483124159        6.8336036648  W2        8843            0.0000000000
     26404      8802  TIP3      OH2           -14.2099105720      -47.9725224159       13.5358036648  W2        8844            0.0000000000
     26405      8802  TIP3      H1            -14.9500005720      -47.3743724159       13.6393236648  W2        8844            0.0000000000
     26406      8802  TIP3      H2            -13.4959605720      -47.4185624159       13.2201636648  W2        8844            0.0000000000
     26407      8803  TIP3      OH2            -6.1031305720      -55.1444424159        9.5557736648  W2        8845            0.0000000000
     26408      8803  TIP3      H1             -6.3183305720      -55.9101024159       10.0883736648  W2        8845            0.0000000000
     26409      8803  TIP3      H2             -5.4473905720      -54.6719824159       10.0686236648  W2        8845            0.0000000000
     26410      8804  TIP3      OH2           -17.1853205720      -53.7559124159       11.2006536648  W2        8846            0.0000000000
     26411      8804  TIP3      H1            -16.5716905720      -53.1231524159       11.5738936648  W2        8846            0.0000000000
     26412      8804  TIP3      H2            -16.6732505720      -54.2284124159       10.5443436648  W2        8846            0.0000000000
     26413      8805  TIP3      OH2           -15.8024805720      -46.0082224159       14.3229536648  W2        8847            0.0000000000
     26414      8805  TIP3      H1            -15.8077205720      -45.1288724159       13.9448836648  W2        8847            0.0000000000
     26415      8805  TIP3      H2            -16.6560705720      -46.0918124159       14.7479436648  W2        8847            0.0000000000
     26416      8806  TIP3      OH2           -19.6813905720      -46.3374324159        5.1048836648  W2        8848            0.0000000000
     26417      8806  TIP3      H1            -19.9533005720      -46.1083324159        4.2161736648  W2        8848            0.0000000000
     26418      8806  TIP3      H2            -19.6358205720      -45.4995524159        5.5654136648  W2        8848            0.0000000000
     26419      8807  TIP3      OH2            -6.0564205720      -44.7158424159       11.8177336648  W2        8849            0.0000000000
     26420      8807  TIP3      H1             -6.9980505720      -44.6574524159       11.9794236648  W2        8849            0.0000000000
     26421      8807  TIP3      H2             -5.7798105720      -43.8097924159       11.6807036648  W2        8849            0.0000000000
     26422      8808  TIP3      OH2            -5.7557205720      -56.4293124159       13.2351236648  W2        8850            0.0000000000
     26423      8808  TIP3      H1             -6.4918005720      -55.8186024159       13.1972536648  W2        8850            0.0000000000
     26424      8808  TIP3      H2             -5.0723205720      -56.0144124159       12.7087636648  W2        8850            0.0000000000
     26425      8809  TIP3      OH2           -12.7525805720      -58.3425824159       10.7009236648  W2        8851            0.0000000000
     26426      8809  TIP3      H1            -12.8701605720      -59.2909824159       10.6467536648  W2        8851            0.0000000000
     26427      8809  TIP3      H2            -13.6075705720      -58.0099724159       10.9740336648  W2        8851            0.0000000000
     26428      8810  TIP3      OH2            -7.8043005720      -42.9344924159        8.4428936648  W2        8852            0.0000000000
     26429      8810  TIP3      H1             -7.3790705720      -43.6417024159        7.9578536648  W2        8852            0.0000000000
     26430      8810  TIP3      H2             -7.4873005720      -42.1332224159        8.0261136648  W2        8852            0.0000000000
     26431      8811  TIP3      OH2            -6.6446505720      -45.0336424159        6.9515536648  W2        8853            0.0000000000
     26432      8811  TIP3      H1             -6.9021705720      -45.7236324159        6.3401436648  W2        8853            0.0000000000
     26433      8811  TIP3      H2             -6.5735705720      -45.4765224159        7.7971436648  W2        8853            0.0000000000
     26434      8812  TIP3      OH2            -4.9586305720      -46.4669724159       15.4289036648  W2        8854            0.0000000000
     26435      8812  TIP3      H1             -4.8190005720      -47.0587224159       14.6896036648  W2        8854            0.0000000000
     26436      8812  TIP3      H2             -4.7913505720      -45.5943824159       15.0727836648  W2        8854            0.0000000000
     26437      8813  TIP3      OH2           -10.4860905720      -49.5050224159        5.2015036648  W2        8855            0.0000000000
     26438      8813  TIP3      H1            -11.1975405720      -48.9700524159        4.8495536648  W2        8855            0.0000000000
     26439      8813  TIP3      H2             -9.7951305720      -49.4498124159        4.5413936648  W2        8855            0.0000000000
     26440      8814  TIP3      OH2           -10.4321705720      -51.0475924159        2.2400036648  W2        8856            0.0000000000
     26441      8814  TIP3      H1             -9.7311805720      -51.0249024159        2.8914036648  W2        8856            0.0000000000
     26442      8814  TIP3      H2            -10.1298805720      -51.6756224159        1.5839336648  W2        8856            0.0000000000
     26443      8815  TIP3      OH2            -3.1167005720      -50.1271724159       13.4949436648  W2        8857            0.0000000000
     26444      8815  TIP3      H1             -3.7692905720      -49.4326124159       13.5840336648  W2        8857            0.0000000000
     26445      8815  TIP3      H2             -2.6516705720      -49.9170824159       12.6851036648  W2        8857            0.0000000000
     26446      8816  TIP3      OH2            -7.0803205720      -49.2956924159        6.1530936648  W2        8858            0.0000000000
     26447      8816  TIP3      H1             -7.8122205720      -49.0673224159        6.7261536648  W2        8858            0.0000000000
     26448      8816  TIP3      H2             -6.6331005720      -50.0094224159        6.6078436648  W2        8858            0.0000000000
     26449      8817  TIP3      OH2            -7.1829705720      -51.1214324159       15.2207936648  W2        8859            0.0000000000
     26450      8817  TIP3      H1             -7.1030605720      -50.3579924159       15.7926436648  W2        8859            0.0000000000
     26451      8817  TIP3      H2             -7.7842005720      -50.8421924159       14.5303036648  W2        8859            0.0000000000
     26452      8818  TIP3      OH2           -15.4349505720      -48.6650724159        8.0355936648  W2        8860            0.0000000000
     26453      8818  TIP3      H1            -15.7654305720      -49.0357324159        7.2172936648  W2        8860            0.0000000000
     26454      8818  TIP3      H2            -14.8465405720      -49.3356724159        8.3824236648  W2        8860            0.0000000000
     26455      8819  TIP3      OH2           -14.0682005720      -45.2370124159       10.7168136648  W2        8861            0.0000000000
     26456      8819  TIP3      H1            -14.1630705720      -45.8157024159        9.9602736648  W2        8861            0.0000000000
     26457      8819  TIP3      H2            -13.3388405720      -45.6084424159       11.2130936648  W2        8861            0.0000000000
     26458      8820  TIP3      OH2           -15.0684005720      -49.8965124159       11.6690936648  W2        8862            0.0000000000
     26459      8820  TIP3      H1            -14.5031505720      -49.7750924159       10.9062136648  W2        8862            0.0000000000
     26460      8820  TIP3      H2            -14.7495105720      -49.2590124159       12.3079436648  W2        8862            0.0000000000
     26461      8821  TIP3      OH2            -8.7591805720      -44.3933224159       12.4031436648  W2        8863            0.0000000000
     26462      8821  TIP3      H1             -8.9995205720      -43.7310124159       13.0510636648  W2        8863            0.0000000000
     26463      8821  TIP3      H2             -8.9573605720      -45.2278024159       12.8281036648  W2        8863            0.0000000000
     26464      8822  TIP3      OH2           -14.1883305720      -45.4972424159       16.3862836648  W2        8864            0.0000000000
     26465      8822  TIP3      H1            -14.4995805720      -44.7149224159       16.8416036648  W2        8864            0.0000000000
     26466      8822  TIP3      H2            -14.8383105720      -45.6503324159       15.7004836648  W2        8864            0.0000000000
     26467      8823  TIP3      OH2            -8.2093705720      -50.1334024159        3.8382136648  W2        8865            0.0000000000
     26468      8823  TIP3      H1             -7.6298205720      -49.9833724159        4.5851036648  W2        8865            0.0000000000
     26469      8823  TIP3      H2             -7.7953705720      -49.6626624159        3.1148536648  W2        8865            0.0000000000
     26470      8824  TIP3      OH2           -17.2683405720      -49.2991324159       15.6148536648  W2        8866            0.0000000000
     26471      8824  TIP3      H1            -17.1980205720      -48.6484524159       16.3133536648  W2        8866            0.0000000000
     26472      8824  TIP3      H2            -18.1591205720      -49.1963824159       15.2799436648  W2        8866            0.0000000000
     26473      8825  TIP3      OH2           -10.4828805720      -43.3965524159        7.2735236648  W2        8867            0.0000000000
     26474      8825  TIP3      H1            -10.0091205720      -43.1009224159        8.0509436648  W2        8867            0.0000000000
     26475      8825  TIP3      H2            -11.0459505720      -42.6583924159        7.0404836648  W2        8867            0.0000000000
     26476      8826  TIP3      OH2           -15.9487405720      -43.4257424159       17.1496636648  W2        8868            0.0000000000
     26477      8826  TIP3      H1            -15.9412105720      -43.5617724159       16.2022136648  W2        8868            0.0000000000
     26478      8826  TIP3      H2            -16.8647005720      -43.5429324159       17.4016636648  W2        8868            0.0000000000
     26479      8827  TIP3      OH2            -4.5105305720      -58.3833624159        3.6511836648  W2        8869            0.0000000000
     26480      8827  TIP3      H1             -5.4104605720      -58.2444624159        3.9462436648  W2        8869            0.0000000000
     26481      8827  TIP3      H2             -4.2586905720      -57.5519024159        3.2493536648  W2        8869            0.0000000000
     26482      8828  TIP3      OH2           -16.4446805720      -49.5956424159        5.6248736648  W2        8870            0.0000000000
     26483      8828  TIP3      H1            -16.7365505720      -48.8274724159        5.1340036648  W2        8870            0.0000000000
     26484      8828  TIP3      H2            -17.1191605720      -50.2550224159        5.4620136648  W2        8870            0.0000000000
     26485      8829  TIP3      OH2            -3.3213905720      -44.0171224159        2.0275736648  W2        8871            0.0000000000
     26486      8829  TIP3      H1             -3.2480405720      -43.0781024159        2.1981036648  W2        8871            0.0000000000
     26487      8829  TIP3      H2             -2.4158805720      -44.3222624159        1.9713036648  W2        8871            0.0000000000
     26488      8830  TIP3      OH2           -20.3516705720      -47.2327224159       14.4398536648  W2        8872            0.0000000000
     26489      8830  TIP3      H1            -20.8528305720      -47.2607824159       13.6248236648  W2        8872            0.0000000000
     26490      8830  TIP3      H2            -20.3463005720      -48.1384024159       14.7495836648  W2        8872            0.0000000000
     26491      8831  TIP3      OH2           -20.6014005720      -44.4523424159       11.3238736648  W2        8873            0.0000000000
     26492      8831  TIP3      H1            -19.6553405720      -44.5966424159       11.3048236648  W2        8873            0.0000000000
     26493      8831  TIP3      H2            -20.7137705720      -43.6680624159       11.8609936648  W2        8873            0.0000000000
     26494      8832  TIP3      OH2            -2.4035505720      -43.7863724159       17.0062436648  W2        8874            0.0000000000
     26495      8832  TIP3      H1             -2.4528705720      -44.7415624159       16.9690036648  W2        8874            0.0000000000
     26496      8832  TIP3      H2             -3.2303205720      -43.5188424159       17.4076236648  W2        8874            0.0000000000
     26497      8833  TIP3      OH2           -11.4251505720      -44.2124524159       15.8823836648  W2        8875            0.0000000000
     26498      8833  TIP3      H1            -11.3376905720      -43.3859924159       16.3572936648  W2        8875            0.0000000000
     26499      8833  TIP3      H2            -12.2886405720      -44.5420724159       16.1313136648  W2        8875            0.0000000000
     26500      8834  TIP3      OH2           -11.0105705720      -40.4400824159        5.6884436648  W2        8876            0.0000000000
     26501      8834  TIP3      H1            -11.0859705720      -40.5613624159        4.7419636648  W2        8876            0.0000000000
     26502      8834  TIP3      H2            -10.9777005720      -39.4908124159        5.8069036648  W2        8876            0.0000000000
     26503      8835  TIP3      OH2           -17.3571905720      -41.6513824159        7.4693436648  W2        8877            0.0000000000
     26504      8835  TIP3      H1            -17.2051505720      -41.9993424159        8.3479936648  W2        8877            0.0000000000
     26505      8835  TIP3      H2            -18.2081505720      -42.0076524159        7.2140636648  W2        8877            0.0000000000
     26506      8836  TIP3      OH2            -7.9089705720      -41.2860624159        2.6906836648  W2        8878            0.0000000000
     26507      8836  TIP3      H1             -7.5341305720      -42.0304524159        2.2199436648  W2        8878            0.0000000000
     26508      8836  TIP3      H2             -7.9046005720      -41.5560024159        3.6090136648  W2        8878            0.0000000000
     26509      8837  TIP3      OH2            -8.2401605720      -41.3603524159        5.4399036648  W2        8879            0.0000000000
     26510      8837  TIP3      H1             -9.1751805720      -41.2601624159        5.6186036648  W2        8879            0.0000000000
     26511      8837  TIP3      H2             -7.9599705720      -42.0697524159        6.0182236648  W2        8879            0.0000000000
     26512      8838  TIP3      OH2            -5.2515705720      -52.2931224159       17.4864636648  W2        8880            0.0000000000
     26513      8838  TIP3      H1             -5.6588905720      -51.8125624159       16.7657936648  W2        8880            0.0000000000
     26514      8838  TIP3      H2             -5.2110005720      -53.1985224159       17.1785436648  W2        8880            0.0000000000
     26515      8839  TIP3      OH2           -18.1026205720      -45.9091824159       15.4831336648  W2        8881            0.0000000000
     26516      8839  TIP3      H1            -17.8864905720      -46.2706224159       16.3427136648  W2        8881            0.0000000000
     26517      8839  TIP3      H2            -18.9581505720      -46.2838024159       15.2734836648  W2        8881            0.0000000000
     26518      8840  TIP3      OH2           -15.4838205720      -57.4391324159       11.4785536648  W2        8882            0.0000000000
     26519      8840  TIP3      H1            -16.3454505720      -57.5263124159       11.0708436648  W2        8882            0.0000000000
     26520      8840  TIP3      H2            -15.5062505720      -56.5831224159       11.9063136648  W2        8882            0.0000000000
     26521      8841  TIP3      OH2           -10.8210405720      -57.7170924159       14.8532536648  W2        8883            0.0000000000
     26522      8841  TIP3      H1            -10.4007305720      -58.1323824159       15.6063136648  W2        8883            0.0000000000
     26523      8841  TIP3      H2            -11.7540805720      -57.8957624159       14.9704536648  W2        8883            0.0000000000
     26524      8842  TIP3      OH2            -7.4945505720      -53.9615724159       15.7067036648  W2        8884            0.0000000000
     26525      8842  TIP3      H1             -8.0086005720      -54.0873524159       16.5043036648  W2        8884            0.0000000000
     26526      8842  TIP3      H2             -7.6500805720      -53.0492624159       15.4623236648  W2        8884            0.0000000000
     26527      8843  TIP3      OH2            -6.7320605720      -49.1005724159        1.4680036648  W2        8885            0.0000000000
     26528      8843  TIP3      H1             -6.6899805720      -49.3231824159        0.5380036648  W2        8885            0.0000000000
     26529      8843  TIP3      H2             -5.8828505720      -48.7018624159        1.6579936648  W2        8885            0.0000000000
     26530      8844  TIP3      OH2           -11.1593105720      -55.2247524159        2.1383336648  W2        8886            0.0000000000
     26531      8844  TIP3      H1            -11.4128305720      -55.2055924159        3.0611436648  W2        8886            0.0000000000
     26532      8844  TIP3      H2            -11.4161005720      -56.0962124159        1.8369536648  W2        8886            0.0000000000
     26533      8845  TIP3      OH2           -15.3928105720      -52.4736824159       12.5735736648  W2        8887            0.0000000000
     26534      8845  TIP3      H1            -16.0346005720      -52.5139524159       13.2825836648  W2        8887            0.0000000000
     26535      8845  TIP3      H2            -15.3556105720      -51.5472124159       12.3358736648  W2        8887            0.0000000000
     26536      8846  TIP3      OH2           -15.3959005720      -52.2526724159        7.4855736648  W2        8888            0.0000000000
     26537      8846  TIP3      H1            -16.2886105720      -52.5930624159        7.4269536648  W2        8888            0.0000000000
     26538      8846  TIP3      H2            -14.9452405720      -52.6295824159        6.7298936648  W2        8888            0.0000000000
     26539      8847  TIP3      OH2            -9.8603505720      -51.8366424159        6.3026536648  W2        8889            0.0000000000
     26540      8847  TIP3      H1            -10.2693205720      -51.0217824159        6.0111336648  W2        8889            0.0000000000
     26541      8847  TIP3      H2             -9.1397305720      -51.9766324159        5.6883636648  W2        8889            0.0000000000
     26542      8848  TIP3      OH2           -10.7581905720      -51.6610024159       17.7907236648  W2        8890            0.0000000000
     26543      8848  TIP3      H1            -11.3208105720      -52.3658424159       18.1115036648  W2        8890            0.0000000000
     26544      8848  TIP3      H2             -9.9318505720      -51.7818124159       18.2584836648  W2        8890            0.0000000000
     26545      8849  TIP3      OH2            -8.8555805720      -52.3906024159        9.1166236648  W2        8891            0.0000000000
     26546      8849  TIP3      H1             -9.0511305720      -51.7849224159        8.4016836648  W2        8891            0.0000000000
     26547      8849  TIP3      H2             -8.6743205720      -53.2240824159        8.6822536648  W2        8891            0.0000000000
     26548      8850  TIP3      OH2           -17.6427605720      -52.1533324159       14.4407736648  W2        8892            0.0000000000
     26549      8850  TIP3      H1            -17.6808205720      -51.7531724159       15.3094836648  W2        8892            0.0000000000
     26550      8850  TIP3      H2            -18.1336505720      -52.9700924159       14.5310636648  W2        8892            0.0000000000
     26551      8851  TIP3      OH2           -14.2770205720      -54.7791024159        1.2393736648  W2        8893            0.0000000000
     26552      8851  TIP3      H1            -14.7079505720      -55.2240924159        1.9691136648  W2        8893            0.0000000000
     26553      8851  TIP3      H2            -14.9951505720      -54.4074724159        0.7271236648  W2        8893            0.0000000000
     26554      8852  TIP3      OH2           -21.0346805720      -55.0371524159        8.2912436648  W2        8894            0.0000000000
     26555      8852  TIP3      H1            -20.4039105720      -55.0659424159        9.0106336648  W2        8894            0.0000000000
     26556      8852  TIP3      H2            -20.5852505720      -55.4622824159        7.5608336648  W2        8894            0.0000000000
     26557      8853  TIP3      OH2           -19.7604705720      -54.2909524159        3.7152836648  W2        8895            0.0000000000
     26558      8853  TIP3      H1            -19.2863005720      -53.6999624159        3.1303736648  W2        8895            0.0000000000
     26559      8853  TIP3      H2            -20.4778305720      -53.7606624159        4.0622936648  W2        8895            0.0000000000
     26560      8854  TIP3      OH2            -9.5916605720      -50.7524724159       13.7878636648  W2        8896            0.0000000000
     26561      8854  TIP3      H1             -9.2681805720      -51.3835024159       13.1449136648  W2        8896            0.0000000000
     26562      8854  TIP3      H2            -10.0317305720      -51.2872524159       14.4486036648  W2        8896            0.0000000000
     26563      8855  TIP3      OH2           -12.8143705720      -54.8249224159        8.5719836648  W2        8897            0.0000000000
     26564      8855  TIP3      H1            -13.7252605720      -54.7682424159        8.8605836648  W2        8897            0.0000000000
     26565      8855  TIP3      H2            -12.3090805720      -54.8853724159        9.3827036648  W2        8897            0.0000000000
     26566      8856  TIP3      OH2           -17.9860305720      -53.1962924159        7.3987436648  W2        8898            0.0000000000
     26567      8856  TIP3      H1            -18.8752305720      -53.0967424159        7.0587036648  W2        8898            0.0000000000
     26568      8856  TIP3      H2            -17.6895405720      -54.0379924159        7.0525336648  W2        8898            0.0000000000
     26569      8857  TIP3      OH2           -14.3328505720      -53.1960324159        5.0552036648  W2        8899            0.0000000000
     26570      8857  TIP3      H1            -13.4013005720      -53.0670324159        5.2335136648  W2        8899            0.0000000000
     26571      8857  TIP3      H2            -14.5478205720      -52.5266024159        4.4056736648  W2        8899            0.0000000000
     26572      8858  TIP3      OH2            -8.4091805720      -55.5902924159       11.8361636648  W2        8900            0.0000000000
     26573      8858  TIP3      H1             -9.0860205720      -55.4589824159       12.5001336648  W2        8900            0.0000000000
     26574      8858  TIP3      H2             -8.8946905720      -55.7453424159       11.0259336648  W2        8900            0.0000000000
     26575      8859  TIP3      OH2           -15.6588305720      -52.0018124159        2.6218136648  W2        8901            0.0000000000
     26576      8859  TIP3      H1            -16.2013205720      -52.3814324159        1.9305736648  W2        8901            0.0000000000
     26577      8859  TIP3      H2            -14.8253405720      -51.8073424159        2.1932236648  W2        8901            0.0000000000
     26578      8860  TIP3      OH2           -17.5236905720      -47.4446224159       17.7209736648  W2        8903            0.0000000000
     26579      8860  TIP3      H1            -16.7914505720      -47.1900324159       18.2824236648  W2        8903            0.0000000000
     26580      8860  TIP3      H2            -18.3038205720      -47.2400824159       18.2365136648  W2        8903            0.0000000000
     26581      8861  TIP3      OH2           -11.4944005720      -52.0376224159       10.4589436648  W2        8904            0.0000000000
     26582      8861  TIP3      H1            -10.9300605720      -52.5839624159        9.9119036648  W2        8904            0.0000000000
     26583      8861  TIP3      H2            -11.6420605720      -52.5594324159       11.2477036648  W2        8904            0.0000000000
     26584      8862  TIP3      OH2           -16.4924305720      -55.9010124159        6.8774236648  W2        8905            0.0000000000
     26585      8862  TIP3      H1            -16.8094805720      -56.8034824159        6.8419636648  W2        8905            0.0000000000
     26586      8862  TIP3      H2            -15.7110205720      -55.8992724159        6.3245836648  W2        8905            0.0000000000
     26587      8863  TIP3      OH2           -12.8678105720      -53.6490124159       12.8729836648  W2        8906            0.0000000000
     26588      8863  TIP3      H1            -13.7032805720      -53.1950624159       12.9832236648  W2        8906            0.0000000000
     26589      8863  TIP3      H2            -12.3437505720      -53.3731624159       13.6249736648  W2        8906            0.0000000000
     26590      8864  TIP3      OH2           -12.3235505720      -47.4362424159        4.5576236648  W2        8907            0.0000000000
     26591      8864  TIP3      H1            -13.0684505720      -47.9437124159        4.2354136648  W2        8907            0.0000000000
     26592      8864  TIP3      H2            -12.4578305720      -47.3874424159        5.5041036648  W2        8907            0.0000000000
     26593      8865  TIP3      OH2            -5.1736605720      -48.3034224159       13.3443836648  W2        8908            0.0000000000
     26594      8865  TIP3      H1             -4.5317805720      -47.8467924159       12.8006036648  W2        8908            0.0000000000
     26595      8865  TIP3      H2             -6.0039705720      -48.1901824159       12.8817936648  W2        8908            0.0000000000
     26596      8866  TIP3      OH2            -8.4258705720      -54.6222524159        2.7568836648  W2        8909            0.0000000000
     26597      8866  TIP3      H1             -9.3644505720      -54.5106924159        2.6057636648  W2        8909            0.0000000000
     26598      8866  TIP3      H2             -8.1286605720      -53.7655624159        3.0634536648  W2        8909            0.0000000000
     26599      8867  TIP3      OH2           -10.8043405720      -47.2519124159       15.7945336648  W2        8910            0.0000000000
     26600      8867  TIP3      H1            -11.1497305720      -47.6336724159       16.6014936648  W2        8910            0.0000000000
     26601      8867  TIP3      H2            -11.0043305720      -46.3185524159       15.8658236648  W2        8910            0.0000000000
     26602      8868  TIP3      OH2            -7.7075205720      -52.7549824159        4.4176236648  W2        8911            0.0000000000
     26603      8868  TIP3      H1             -6.8156205720      -52.8924824159        4.7367436648  W2        8911            0.0000000000
     26604      8868  TIP3      H2             -7.6511605720      -51.9643724159        3.8809736648  W2        8911            0.0000000000
     26605      8869  TIP3      OH2           -17.1987205720      -48.1412424159       10.3274136648  W2        8912            0.0000000000
     26606      8869  TIP3      H1            -16.4540005720      -48.1436724159        9.7260636648  W2        8912            0.0000000000
     26607      8869  TIP3      H2            -17.1210605720      -48.9648624159       10.8089236648  W2        8912            0.0000000000
     26608      8870  TIP3      OH2           -10.1981405720      -45.9778124159        3.5830836648  W2        8913            0.0000000000
     26609      8870  TIP3      H1            -10.4933005720      -45.1510224159        3.9645636648  W2        8913            0.0000000000
     26610      8870  TIP3      H2            -10.9011405720      -46.5971224159        3.7792236648  W2        8913            0.0000000000
     26611      8871  TIP3      OH2           -20.1907505720      -49.6805524159       15.6422636648  W2        8914            0.0000000000
     26612      8871  TIP3      H1            -19.9678905720      -50.0985924159       16.4740136648  W2        8914            0.0000000000
     26613      8871  TIP3      H2            -20.7927405720      -50.2930524159       15.2195436648  W2        8914            0.0000000000
     26614      8872  TIP3      OH2            -8.5539805720      -44.7903624159       15.7450336648  W2        8916            0.0000000000
     26615      8872  TIP3      H1             -9.4545505720      -44.6071024159       15.4774236648  W2        8916            0.0000000000
     26616      8872  TIP3      H2             -8.5198705720      -44.5314324159       16.6659136648  W2        8916            0.0000000000
     26617      8873  TIP3      OH2            -2.8226505720      -52.5455724159        4.1122936648  W2        8917            0.0000000000
     26618      8873  TIP3      H1             -3.3770205720      -52.9417724159        3.4400436648  W2        8917            0.0000000000
     26619      8873  TIP3      H2             -2.7222905720      -51.6350524159        3.8346236648  W2        8917            0.0000000000
     26620      8874  TIP3      OH2            -2.8594505720      -46.7454024159       16.9494436648  W2        8918            0.0000000000
     26621      8874  TIP3      H1             -3.7106005720      -46.5070224159       16.5820836648  W2        8918            0.0000000000
     26622      8874  TIP3      H2             -2.2691105720      -46.7620824159       16.1961536648  W2        8918            0.0000000000
     26623      8875  TIP3      OH2            -4.5274805720      -43.7595324159        4.5775036648  W2        8919            0.0000000000
     26624      8875  TIP3      H1             -4.9003705720      -44.5851524159        4.8865636648  W2        8919            0.0000000000
     26625      8875  TIP3      H2             -4.2501305720      -43.9425924159        3.6798436648  W2        8919            0.0000000000
     26626      8876  TIP3      OH2            -7.3670905720      -48.9515824159       11.5986936648  W2        8920            0.0000000000
     26627      8876  TIP3      H1             -8.2954005720      -49.1833924159       11.5716236648  W2        8920            0.0000000000
     26628      8876  TIP3      H2             -6.9159805720      -49.7286024159       11.2685736648  W2        8920            0.0000000000
     26629      8877  TIP3      OH2           -14.8237805720      -44.6234224159        7.7315636648  W2        8921            0.0000000000
     26630      8877  TIP3      H1            -14.2965605720      -43.8499824159        7.5314436648  W2        8921            0.0000000000
     26631      8877  TIP3      H2            -15.7039305720      -44.3985024159        7.4299636648  W2        8921            0.0000000000
     26632      8878  TIP3      OH2           -19.0690105720      -49.7610124159        2.3188036648  W2        8922            0.0000000000
     26633      8878  TIP3      H1            -18.4530205720      -49.1342924159        2.6982836648  W2        8922            0.0000000000
     26634      8878  TIP3      H2            -19.9307505720      -49.4450324159        2.5904536648  W2        8922            0.0000000000
     26635      8879  TIP3      OH2           -13.3965505720      -46.9604324159        7.3079936648  W2        8923            0.0000000000
     26636      8879  TIP3      H1            -13.6375505720      -46.0349924159        7.3495236648  W2        8923            0.0000000000
     26637      8879  TIP3      H2            -14.1371905720      -47.4193024159        7.7043836648  W2        8923            0.0000000000
     26638      8880  TIP3      OH2           -12.8818905720      -42.8110724159       13.6231036648  W2        8924            0.0000000000
     26639      8880  TIP3      H1            -12.5194205720      -41.9565124159       13.3895436648  W2        8924            0.0000000000
     26640      8880  TIP3      H2            -12.3503705720      -43.1029124159       14.3637336648  W2        8924            0.0000000000
     26641      8881  TIP3      OH2           -14.7134705720      -41.9386724159        6.8532136648  W2        8925            0.0000000000
     26642      8881  TIP3      H1            -15.6634205720      -41.8329324159        6.9045436648  W2        8925            0.0000000000
     26643      8881  TIP3      H2            -14.3616605720      -41.1179324159        7.1979636648  W2        8925            0.0000000000
     26644      8882  TIP3      OH2            -9.3378105720      -46.7120024159       13.3236636648  W2        8926            0.0000000000
     26645      8882  TIP3      H1             -9.7636805720      -46.9398324159       14.1500636648  W2        8926            0.0000000000
     26646      8882  TIP3      H2             -8.7572305720      -47.4508224159       13.1411936648  W2        8926            0.0000000000
     26647      8883  TIP3      OH2            -7.1349205720      -45.7829524159        2.3975636648  W2        8927            0.0000000000
     26648      8883  TIP3      H1             -6.7816105720      -46.1629724159        3.2019136648  W2        8927            0.0000000000
     26649      8883  TIP3      H2             -8.0835705720      -45.8764724159        2.4844936648  W2        8927            0.0000000000
     26650      8884  TIP3      OH2            -6.6793905720      -42.1600524159       15.7931436648  W2        8928            0.0000000000
     26651      8884  TIP3      H1             -7.2810705720      -42.7157624159       15.2977736648  W2        8928            0.0000000000
     26652      8884  TIP3      H2             -6.3980205720      -41.4930724159       15.1668836648  W2        8928            0.0000000000
     26653      8885  TIP3      OH2            -2.6314805720      -41.3037024159        2.5985836648  W2        8929            0.0000000000
     26654      8885  TIP3      H1             -1.8876905720      -40.7176524159        2.4587436648  W2        8929            0.0000000000
     26655      8885  TIP3      H2             -3.3256705720      -40.7351224159        2.9318236648  W2        8929            0.0000000000
     26656      8886  TIP3      OH2           -18.5568005720      -54.9272824159       15.2004036648  W2        8930            0.0000000000
     26657      8886  TIP3      H1            -19.4495705720      -54.5887424159       15.1328036648  W2        8930            0.0000000000
     26658      8886  TIP3      H2            -18.6555205720      -55.7826724159       15.6184836648  W2        8930            0.0000000000
     26659      8887  TIP3      OH2            -6.2689905720      -47.1107524159        4.6243536648  W2        8931            0.0000000000
     26660      8887  TIP3      H1             -6.5462305720      -47.8388224159        5.1804636648  W2        8931            0.0000000000
     26661      8887  TIP3      H2             -5.3416905720      -46.9915524159        4.8296136648  W2        8931            0.0000000000
     26662      8888  TIP3      OH2           -18.9056005720      -43.1228424159       13.6353436648  W2        8932            0.0000000000
     26663      8888  TIP3      H1            -18.6885705720      -44.0546024159       13.6043136648  W2        8932            0.0000000000
     26664      8888  TIP3      H2            -18.6592505720      -42.8483424159       14.5186236648  W2        8932            0.0000000000
     26665      8889  TIP3      OH2           -13.0441405720      -44.6713424159        0.8445636648  W2        8933            0.0000000000
     26666      8889  TIP3      H1            -12.8051605720      -45.4195324159        0.2974536648  W2        8933            0.0000000000
     26667      8889  TIP3      H2            -13.3130105720      -45.0591724159        1.6773436648  W2        8933            0.0000000000
     26668      8890  TIP3      OH2           -14.1070805720      -45.1009624159        3.3008236648  W2        8934            0.0000000000
     26669      8890  TIP3      H1            -13.9602805720      -45.6209824159        4.0909136648  W2        8934            0.0000000000
     26670      8890  TIP3      H2            -14.1099105720      -44.1942024159        3.6074136648  W2        8934            0.0000000000
     26671      8891  TIP3      OH2           -17.6539705720      -47.8486324159        3.8113636648  W2        8935            0.0000000000
     26672      8891  TIP3      H1            -18.3400405720      -47.4963824159        4.3783336648  W2        8935            0.0000000000
     26673      8891  TIP3      H2            -17.1311805720      -47.0856724159        3.5647936648  W2        8935            0.0000000000
     26674      8892  TIP3      OH2            -9.8224605720      -55.1862524159       14.0902636648  W2        8936            0.0000000000
     26675      8892  TIP3      H1             -9.1236705720      -55.1123824159       14.7402336648  W2        8936            0.0000000000
     26676      8892  TIP3      H2            -10.2033205720      -56.0507524159       14.2445536648  W2        8936            0.0000000000
     26677      8893  TIP3      OH2            -9.0379705720      -55.5340824159        5.1874936648  W2        8937            0.0000000000
     26678      8893  TIP3      H1             -8.8181405720      -55.0625424159        4.3840336648  W2        8937            0.0000000000
     26679      8893  TIP3      H2             -8.4795705720      -55.1398224159        5.8575536648  W2        8937            0.0000000000
     26680      8894  TIP3      OH2           -11.3693605720      -43.4036024159        4.0502436648  W2        8938            0.0000000000
     26681      8894  TIP3      H1            -12.1857505720      -42.9066324159        4.1026736648  W2        8938            0.0000000000
     26682      8894  TIP3      H2            -10.8397305720      -42.9282524159        3.4101236648  W2        8938            0.0000000000
     26683      8895  TIP3      OH2           -11.8379805720      -53.8062024159        6.0223336648  W2        8939            0.0000000000
     26684      8895  TIP3      H1            -11.0257205720      -53.3018824159        6.0685036648  W2        8939            0.0000000000
     26685      8895  TIP3      H2            -12.0826805720      -53.9512324159        6.9362936648  W2        8939            0.0000000000
     26686      8896  TIP3      OH2           -11.3023405720      -52.8199324159       15.2069936648  W2        8940            0.0000000000
     26687      8896  TIP3      H1            -11.1833105720      -52.2463924159       15.9640336648  W2        8940            0.0000000000
     26688      8896  TIP3      H2            -10.6468805720      -53.5079924159       15.3217736648  W2        8940            0.0000000000
     26689      8897  TIP3      OH2           -10.9543105720      -56.7249024159        6.9604436648  W2        8941            0.0000000000
     26690      8897  TIP3      H1            -11.3009605720      -56.1078424159        7.6048736648  W2        8941            0.0000000000
     26691      8897  TIP3      H2            -10.2956205720      -56.2243324159        6.4789936648  W2        8941            0.0000000000
     26692      8898  TIP3      OH2           -14.0310505720      -42.3598824159        4.0319336648  W2        8942            0.0000000000
     26693      8898  TIP3      H1            -13.8701805720      -41.5601324159        3.5311936648  W2        8942            0.0000000000
     26694      8898  TIP3      H2            -14.2282705720      -42.0532824159        4.9169936648  W2        8942            0.0000000000
     26695      8899  TIP3      OH2           -15.2966105720      -55.6619624159        3.6476936648  W2        8943            0.0000000000
     26696      8899  TIP3      H1            -15.3801305720      -54.7736524159        3.9943336648  W2        8943            0.0000000000
     26697      8899  TIP3      H2            -14.4065805720      -55.9272924159        3.8793736648  W2        8943            0.0000000000
     26698      8900  TIP3      OH2            -5.0977605720      -54.9129024159       16.0419636648  W2        8944            0.0000000000
     26699      8900  TIP3      H1             -6.0141805720      -54.6507324159       15.9543336648  W2        8944            0.0000000000
     26700      8900  TIP3      H2             -4.7622605720      -54.9160024159       15.1454936648  W2        8944            0.0000000000
     26701      8901  TIP3      OH2            -6.4956605720      -51.1628024159       10.1376936648  W2        8945            0.0000000000
     26702      8901  TIP3      H1             -7.2932205720      -51.5777824159        9.8091936648  W2        8945            0.0000000000
     26703      8901  TIP3      H2             -6.0505505720      -51.8534324159       10.6287436648  W2        8945            0.0000000000
     26704      8902  TIP3      OH2           -17.0380805720      -45.2347424159        2.7081436648  W2        8946            0.0000000000
     26705      8902  TIP3      H1            -16.4459305720      -44.5352624159        2.9843836648  W2        8946            0.0000000000
     26706      8902  TIP3      H2            -16.5787805720      -45.6677924159        1.9886036648  W2        8946            0.0000000000
     26707      8903  TIP3      OH2           -18.7221605720      -52.5704424159        1.8240836648  W2        8947            0.0000000000
     26708      8903  TIP3      H1            -18.7669005720      -51.6311324159        2.0027836648  W2        8947            0.0000000000
     26709      8903  TIP3      H2            -19.6098405720      -52.8059524159        1.5542936648  W2        8947            0.0000000000
     26710      8904  TIP3      OH2            -5.4092005720      -41.9065524159       11.7600436648  W2        8948            0.0000000000
     26711      8904  TIP3      H1             -5.5647705720      -41.2281124159       11.1029736648  W2        8948            0.0000000000
     26712      8904  TIP3      H2             -4.4765605720      -41.8346224159       11.9631036648  W2        8948            0.0000000000
     26713      8905  TIP3      OH2           -17.9139605720      -57.7887824159       10.4971836648  W2        8949            0.0000000000
     26714      8905  TIP3      H1            -18.1429805720      -57.7295324159        9.5696836648  W2        8949            0.0000000000
     26715      8905  TIP3      H2            -18.3566205720      -58.5802324159       10.8035936648  W2        8949            0.0000000000
     26716      8906  TIP3      OH2           -18.9836305720      -43.8480724159        6.6577636648  W2        8950            0.0000000000
     26717      8906  TIP3      H1            -19.8157705720      -43.3758024159        6.6849036648  W2        8950            0.0000000000
     26718      8906  TIP3      H2            -18.4378005720      -43.3383124159        6.0590736648  W2        8950            0.0000000000
     26719      8907  TIP3      OH2           -11.0059605720      -42.8082024159        0.9831636648  W2        8953            0.0000000000
     26720      8907  TIP3      H1            -11.6498605720      -43.4393424159        1.3045336648  W2        8953            0.0000000000
     26721      8907  TIP3      H2            -10.2441305720      -43.3394024159        0.7515136648  W2        8953            0.0000000000
     26722      8908  TIP3      OH2            -6.4016705720      -42.9912124159        1.2169636648  W2        8955            0.0000000000
     26723      8908  TIP3      H1             -6.1186305720      -43.7856924159        1.6696536648  W2        8955            0.0000000000
     26724      8908  TIP3      H2             -5.6618805720      -42.7581124159        0.6560736648  W2        8955            0.0000000000
     26725      8909  TIP3      OH2           -15.4469405720      -47.0817224159        1.0744536648  W2        8957            0.0000000000
     26726      8909  TIP3      H1            -15.3825305720      -47.8757624159        1.6050936648  W2        8957            0.0000000000
     26727      8909  TIP3      H2            -14.7940205720      -47.2004424159        0.3846536648  W2        8957            0.0000000000
     26728      8910  TIP3      OH2           -10.0946005720      -46.0345524159        0.8102536648  W2        8959            0.0000000000
     26729      8910  TIP3      H1            -10.3631905720      -45.8543424159        1.7111436648  W2        8959            0.0000000000
     26730      8910  TIP3      H2            -10.3010405720      -46.9599324159        0.6788336648  W2        8959            0.0000000000
     26731      8911  TIP3      OH2            -7.3981805720      -47.5397524159       15.7578636648  W2        8960            0.0000000000
     26732      8911  TIP3      H1             -6.6527005720      -46.9513824159       15.6382636648  W2        8960            0.0000000000
     26733      8911  TIP3      H2             -8.1555005720      -46.9577824159       15.8211736648  W2        8960            0.0000000000
     26734      8912  TIP3      OH2           -14.2975605720      -49.1091024159        3.3802536648  W2        8962            0.0000000000
     26735      8912  TIP3      H1            -14.7573605720      -49.5932724159        4.0661036648  W2        8962            0.0000000000
     26736      8912  TIP3      H2            -14.0426905720      -49.7775624159        2.7443036648  W2        8962            0.0000000000
     26737      8913  TIP3      OH2           -15.0086305720      -51.2163924159       15.7362136648  W2        8963            0.0000000000
     26738      8913  TIP3      H1            -15.6270205720      -50.5417324159       16.0166836648  W2        8963            0.0000000000
     26739      8913  TIP3      H2            -14.6645105720      -50.8950024159       14.9028336648  W2        8963            0.0000000000
     26740      8914  TIP3      OH2           -13.2265205720      -50.8659224159        1.6425736648  W2        8964            0.0000000000
     26741      8914  TIP3      H1            -13.4070205720      -51.0208024159        0.7154036648  W2        8964            0.0000000000
     26742      8914  TIP3      H2            -12.2764705720      -50.7580524159        1.6873636648  W2        8964            0.0000000000
     26743      8915  TIP3      OH2            -3.8366905720      -48.5115024159        1.0883836648  W2        8966            0.0000000000
     26744      8915  TIP3      H1             -4.1102105720      -48.9359524159        0.2752136648  W2        8966            0.0000000000
     26745      8915  TIP3      H2             -3.7972805720      -47.5800524159        0.8714236648  W2        8966            0.0000000000
     26746      8916  TIP3      OH2           -14.6692605720      -53.8613124159       16.8185236648  W2        8967            0.0000000000
     26747      8916  TIP3      H1            -14.5191705720      -54.5901824159       16.2164936648  W2        8967            0.0000000000
     26748      8916  TIP3      H2            -14.6670205720      -53.0841424159       16.2597436648  W2        8967            0.0000000000
     26749      8917  TIP3      OH2           -14.2566905720      -55.4917324159       14.3112636648  W2        8968            0.0000000000
     26750      8917  TIP3      H1            -13.7209405720      -55.0400624159       13.6591936648  W2        8968            0.0000000000
     26751      8917  TIP3      H2            -15.1087305720      -55.5997524159       13.8886736648  W2        8968            0.0000000000
     26752      8918  TIP3      OH2           -12.6748505720      -50.0521124159       14.5507836648  W2        8969            0.0000000000
     26753      8918  TIP3      H1            -11.9243705720      -50.2083624159       13.9775636648  W2        8969            0.0000000000
     26754      8918  TIP3      H2            -13.0140205720      -49.2004524159       14.2753336648  W2        8969            0.0000000000
     26755      8919  TIP3      OH2            -6.9425105720      -49.4484124159       17.6565836648  W2        8971            0.0000000000
     26756      8919  TIP3      H1             -7.2240105720      -48.7389524159       17.0789636648  W2        8971            0.0000000000
     26757      8919  TIP3      H2             -6.0000805720      -49.5211124159       17.5057036648  W2        8971            0.0000000000
     26758      8920  TIP3      OH2           -13.4511405720      -58.0351624159       14.7426236648  W2        8973            0.0000000000
     26759      8920  TIP3      H1            -13.5491805720      -57.0888424159       14.6372436648  W2        8973            0.0000000000
     26760      8920  TIP3      H2            -14.1935205720      -58.4077824159       14.2669736648  W2        8973            0.0000000000
     26761      8921  TIP3      OH2            -9.4714305720      -54.5862724159       17.3818136648  W2        8975            0.0000000000
     26762      8921  TIP3      H1            -10.4188905720      -54.5543024159       17.5141436648  W2        8975            0.0000000000
     26763      8921  TIP3      H2             -9.1587605720      -55.2115624159       18.0356336648  W2        8975            0.0000000000
     26764      8922  TIP3      OH2           -13.2293305720      -58.7414224159       17.4139036648  W2        8978            0.0000000000
     26765      8922  TIP3      H1            -12.5174905720      -59.3812024159       17.3998136648  W2        8978            0.0000000000
     26766      8922  TIP3      H2            -13.3302905720      -58.4745924159       16.5002136648  W2        8978            0.0000000000
     26767      8923  TIP3      OH2           -13.3293505720      -40.1755524159        2.6439336648  W2        8980            0.0000000000
     26768      8923  TIP3      H1            -12.3962805720      -40.0176824159        2.7877736648  W2        8980            0.0000000000
     26769      8923  TIP3      H2            -13.5934705720      -39.5002524159        2.0190836648  W2        8980            0.0000000000
     26770      8924  TIP3      OH2           -19.7608605720      -45.5391724159        2.1267436648  W2        8981            0.0000000000
     26771      8924  TIP3      H1            -18.8469405720      -45.4602824159        2.4001336648  W2        8981            0.0000000000
     26772      8924  TIP3      H2            -19.7535505720      -46.2262124159        1.4603036648  W2        8981            0.0000000000
     26773      8925  TIP3      OH2           -21.1118005720      -40.1463224159        7.2041336648  W2        8982            0.0000000000
     26774      8925  TIP3      H1            -21.7590905720      -40.6081524159        6.6712536648  W2        8982            0.0000000000
     26775      8925  TIP3      H2            -20.7573405720      -40.8179924159        7.7867536648  W2        8982            0.0000000000
     26776      8926  TIP3      OH2           -20.2418805720      -42.0656224159        9.0087536648  W2        8983            0.0000000000
     26777      8926  TIP3      H1            -20.5762005720      -42.9458924159        9.1807736648  W2        8983            0.0000000000
     26778      8926  TIP3      H2            -20.0196405720      -41.7201224159        9.8733136648  W2        8983            0.0000000000
     26779      8927  TIP3      OH2            -2.6934005720      -41.2559824159       11.9892336648  W2        8984            0.0000000000
     26780      8927  TIP3      H1             -2.7147305720      -41.0711424159       12.9281736648  W2        8984            0.0000000000
     26781      8927  TIP3      H2             -2.0027805720      -40.6875824159       11.6483736648  W2        8984            0.0000000000
     26782      8928  TIP3      OH2            -3.1301105720      -41.6888724159       14.9111436648  W2        8985            0.0000000000
     26783      8928  TIP3      H1             -3.6172405720      -42.4244624159       14.5398836648  W2        8985            0.0000000000
     26784      8928  TIP3      H2             -2.5808405720      -42.0824824159       15.5890836648  W2        8985            0.0000000000
     26785      8929  TIP3      OH2            -3.3784105720      -47.6426924159        5.0634236648  W2        8987            0.0000000000
     26786      8929  TIP3      H1             -2.5282705720      -47.2216024159        5.1905836648  W2        8987            0.0000000000
     26787      8929  TIP3      H2             -3.3729005720      -48.3826824159        5.6705636648  W2        8987            0.0000000000
     26788      8930  TIP3      OH2            -2.9838505720      -49.5889524159        6.8869936648  W2        8988            0.0000000000
     26789      8930  TIP3      H1             -3.7103905720      -50.0686924159        7.2847536648  W2        8988            0.0000000000
     26790      8930  TIP3      H2             -2.4025205720      -49.3834824159        7.6191536648  W2        8988            0.0000000000
     26791      8931  TIP3      OH2            -3.2247305720      -46.8042024159       11.8347536648  W2        8989            0.0000000000
     26792      8931  TIP3      H1             -2.3913105720      -47.1822024159       11.5541136648  W2        8989            0.0000000000
     26793      8931  TIP3      H2             -3.1127005720      -45.8610824159       11.7156636648  W2        8989            0.0000000000
     26794      8932  TIP3      OH2            -4.7385005720      -43.9264524159       14.1415936648  W2        8990            0.0000000000
     26795      8932  TIP3      H1             -5.3859705720      -43.6013024159       14.7671136648  W2        8990            0.0000000000
     26796      8932  TIP3      H2             -5.2561005720      -44.3666824159       13.4674236648  W2        8990            0.0000000000
     26797      8933  TIP3      OH2            -2.7155405720      -49.6881024159        3.2781236648  W2        8991            0.0000000000
     26798      8933  TIP3      H1             -3.2374305720      -49.3316924159        2.5592136648  W2        8991            0.0000000000
     26799      8933  TIP3      H2             -2.7486205720      -49.0133224159        3.9562136648  W2        8991            0.0000000000
     26800      8934  TIP3      OH2            -4.3666405720      -52.4485424159        1.8288336648  W2        8992            0.0000000000
     26801      8934  TIP3      H1             -4.2702005720      -51.7818424159        1.1488036648  W2        8992            0.0000000000
     26802      8934  TIP3      H2             -4.5066805720      -53.2639124159        1.3473836648  W2        8992            0.0000000000
     26803      8935  TIP3      OH2            -5.1971705720      -51.0683024159        7.4498636648  W2        8993            0.0000000000
     26804      8935  TIP3      H1             -5.3472905720      -52.0134424159        7.4296436648  W2        8993            0.0000000000
     26805      8935  TIP3      H2             -5.5507205720      -50.7871624159        8.2937736648  W2        8993            0.0000000000
     26806      8936  TIP3      OH2           -20.1619305720      -48.9900824159       11.4602436648  W2        8994            0.0000000000
     26807      8936  TIP3      H1            -19.9776405720      -49.0719124159       10.5245336648  W2        8994            0.0000000000
     26808      8936  TIP3      H2            -19.3126405720      -49.1143824159       11.8838836648  W2        8994            0.0000000000
     26809      8937  TIP3      OH2            -4.3408805720      -49.0979724159       17.0886936648  W2        8995            0.0000000000
     26810      8937  TIP3      H1             -3.7581505720      -49.8327424159       17.2804136648  W2        8995            0.0000000000
     26811      8937  TIP3      H2             -3.7769505720      -48.3259424159       17.1352736648  W2        8995            0.0000000000
     26812      8938  TIP3      OH2            -2.8441705720      -51.1953924159       17.7732336648  W2        8996            0.0000000000
     26813      8938  TIP3      H1             -3.7075005720      -51.5741824159       17.6077036648  W2        8996            0.0000000000
     26814      8938  TIP3      H2             -2.2398005720      -51.9339124159       17.6988136648  W2        8996            0.0000000000
     26815      8939  TIP3      OH2            -5.1192605720      -55.0405624159        0.9463836648  W2        8997            0.0000000000
     26816      8939  TIP3      H1             -4.5086805720      -55.4118824159        1.5832036648  W2        8997            0.0000000000
     26817      8939  TIP3      H2             -5.9561105720      -55.4618724159        1.1423836648  W2        8997            0.0000000000
     26818      8940  TIP3      OH2            -5.4866905720      -53.4857224159        5.9123736648  W2        8998            0.0000000000
     26819      8940  TIP3      H1             -5.2069805720      -54.3926824159        6.0365436648  W2        8998            0.0000000000
     26820      8940  TIP3      H2             -4.7275205720      -53.0515724159        5.5232936648  W2        8998            0.0000000000
     26821      8941  TIP3      OH2            -4.8748605720      -52.9039824159       11.3482636648  W2        8999            0.0000000000
     26822      8941  TIP3      H1             -3.9420605720      -52.6919924159       11.3138636648  W2        8999            0.0000000000
     26823      8941  TIP3      H2             -5.1101105720      -52.8027724159       12.2705636648  W2        8999            0.0000000000
     26824      8942  TIP3      OH2            -4.8456705720      -52.1674524159       14.1242036648  W2        9000            0.0000000000
     26825      8942  TIP3      H1             -5.6885405720      -51.8994124159       14.4901836648  W2        9000            0.0000000000
     26826      8942  TIP3      H2             -4.4032405720      -51.3452624159       13.9133136648  W2        9000            0.0000000000
     26827      8943  TIP3      OH2           -20.5644505720      -53.7195824159       17.6011236648  W2        9001            0.0000000000
     26828      8943  TIP3      H1            -19.6449605720      -53.8417524159       17.8374336648  W2        9001            0.0000000000
     26829      8943  TIP3      H2            -21.0140005720      -54.4696124159       17.9904736648  W2        9001            0.0000000000
     26830      8944  TIP3      OH2            -4.8732105720      -56.2227924159        5.9605736648  W2        9003            0.0000000000
     26831      8944  TIP3      H1             -4.6907105720      -56.6716424159        6.7860736648  W2        9003            0.0000000000
     26832      8944  TIP3      H2             -5.4729205720      -56.8073524159        5.4970336648  W2        9003            0.0000000000
     26833      8945  TIP3      OH2           -19.3432005720      -55.4074224159       10.4924136648  W2        9004            0.0000000000
     26834      8945  TIP3      H1            -18.8980405720      -56.1991724159       10.7943836648  W2        9004            0.0000000000
     26835      8945  TIP3      H2            -18.8769005720      -54.6909024159       10.9229736648  W2        9004            0.0000000000
     26836      8946  TIP3      OH2           -21.0391705720      -52.4081224159       11.5614336648  W2        9005            0.0000000000
     26837      8946  TIP3      H1            -20.5471905720      -52.6290724159       10.7706336648  W2        9005            0.0000000000
     26838      8946  TIP3      H2            -20.6770805720      -51.5677824159       11.8423836648  W2        9005            0.0000000000
     26839      8947  TIP3      OH2            -3.0065905720      -56.1549824159        2.4886036648  W2        9007            0.0000000000
     26840      8947  TIP3      H1             -2.5943305720      -56.8764124159        2.0134036648  W2        9007            0.0000000000
     26841      8947  TIP3      H2             -2.3249405720      -55.4855224159        2.5470336648  W2        9007            0.0000000000
     26842      8948  TIP3      OH2           -20.7255205720      -56.1502124159        5.6156736648  W2        9008            0.0000000000
     26843      8948  TIP3      H1            -21.6506805720      -55.9415524159        5.4862236648  W2        9008            0.0000000000
     26844      8948  TIP3      H2            -20.2715305720      -55.6661324159        4.9259036648  W2        9008            0.0000000000
     26845      8949  TIP3      OH2            -5.9548005720      -41.1660424159        7.5614136648  W2        9009            0.0000000000
     26846      8949  TIP3      H1             -5.3025105720      -41.5138324159        6.9533236648  W2        9009            0.0000000000
     26847      8949  TIP3      H2             -5.4444205720      -40.6777224159        8.2073836648  W2        9009            0.0000000000
     26848      8950  TIP3      OH2           -20.7619805720      -57.4123124159       13.9599236648  W2        9010            0.0000000000
     26849      8950  TIP3      H1            -21.4269305720      -57.6582824159       14.6030136648  W2        9010            0.0000000000
     26850      8950  TIP3      H2            -21.2048505720      -56.7902724159       13.3827236648  W2        9010            0.0000000000
     26851      8951  TIP3      OH2           -15.6157605720      -43.2627824159       14.3629036648  W2        9012            0.0000000000
     26852      8951  TIP3      H1            -16.0406505720      -42.4529324159       14.0803636648  W2        9012            0.0000000000
     26853      8951  TIP3      H2            -14.7114805720      -43.1773724159       14.0608836648  W2        9012            0.0000000000
     26854      8952  TIP3      OH2           -11.3046205720      -41.8637824159       17.3222736648  W2        9013            0.0000000000
     26855      8952  TIP3      H1            -11.1198705720      -42.1971724159       18.2003036648  W2        9013            0.0000000000
     26856      8952  TIP3      H2            -10.4581705720      -41.5539224159       17.0001936648  W2        9013            0.0000000000
     26857      8953  TIP3      OH2            -8.9595805720      -40.5778924159       16.5664136648  W2        9014            0.0000000000
     26858      8953  TIP3      H1             -8.2826905720      -41.2106624159       16.3263336648  W2        9014            0.0000000000
     26859      8953  TIP3      H2             -8.6377005720      -40.1768424159       17.3737436648  W2        9014            0.0000000000
     26860      8954  TIP3      OH2            -4.0422005720      -57.9883424159       15.6459136648  W2        9015            0.0000000000
     26861      8954  TIP3      H1             -4.8548505720      -57.6633124159       15.2583836648  W2        9015            0.0000000000
     26862      8954  TIP3      H2             -3.8093505720      -58.7484924159       15.1128236648  W2        9015            0.0000000000
     26863      8955  TIP3      OH2           -18.2140905720      -40.0063924159       14.4104336648  W2        9016            0.0000000000
     26864      8955  TIP3      H1            -18.9344505720      -39.5662924159       13.9592036648  W2        9016            0.0000000000
     26865      8955  TIP3      H2            -18.5796905720      -40.2569224159       15.2588336648  W2        9016            0.0000000000
     26866      8956  TIP3      OH2           -15.7468305720      -40.4060024159       13.4401536648  W2        9017            0.0000000000
     26867      8956  TIP3      H1            -16.6116105720      -40.3341524159       13.8441636648  W2        9017            0.0000000000
     26868      8956  TIP3      H2            -15.8019305720      -39.8592724159       12.6564036648  W2        9017            0.0000000000
     26869      8957  TIP3      OH2           -11.0362705720      -40.5181124159       12.6157536648  W2        9018            0.0000000000
     26870      8957  TIP3      H1            -11.4928705720      -39.9891424159       11.9615936648  W2        9018            0.0000000000
     26871      8957  TIP3      H2            -10.8734705720      -39.9149724159       13.3409836648  W2        9018            0.0000000000
     26872      8958  TIP3      OH2            -8.7086405720      -41.6401524159       13.5607836648  W2        9019            0.0000000000
     26873      8958  TIP3      H1             -9.6132705720      -41.4751324159       13.2949936648  W2        9019            0.0000000000
     26874      8958  TIP3      H2             -8.2797805720      -40.7869324159       13.4951236648  W2        9019            0.0000000000
     26875      8959  TIP3      OH2            -6.1044505720      -40.0702424159       13.8555636648  W2        9020            0.0000000000
     26876      8959  TIP3      H1             -6.2862505720      -39.1543524159       13.6450536648  W2        9020            0.0000000000
     26877      8959  TIP3      H2             -5.9276705720      -40.4805324159       13.0090236648  W2        9020            0.0000000000
     26878      8960  TIP3      OH2           -18.7992805720      -41.3831424159       11.3206136648  W2        9021            0.0000000000
     26879      8960  TIP3      H1            -18.8176805720      -41.8086324159       12.1778436648  W2        9021            0.0000000000
     26880      8960  TIP3      H2            -17.9944905720      -41.7016424159       10.9118336648  W2        9021            0.0000000000
     26881      8961  TIP3      OH2           -16.6579705720      -42.6732724159        9.9756036648  W2        9022            0.0000000000
     26882      8961  TIP3      H1            -16.8769005720      -43.5895324159       10.1452036648  W2        9022            0.0000000000
     26883      8961  TIP3      H2            -15.8337505720      -42.5332324159       10.4417436648  W2        9022            0.0000000000
     26884      8962  TIP3      OH2           -14.1207205720      -42.2033424159       10.8244036648  W2        9023            0.0000000000
     26885      8962  TIP3      H1            -13.9081505720      -43.0914424159       10.5374936648  W2        9023            0.0000000000
     26886      8962  TIP3      H2            -14.0562105720      -42.2375724159       11.7788036648  W2        9023            0.0000000000
     26887      8963  TIP3      OH2           -10.6123505720      -56.5392824159        9.9687336648  W2        9024            0.0000000000
     26888      8963  TIP3      H1            -11.2866705720      -57.1687224159       10.2243136648  W2        9024            0.0000000000
     26889      8963  TIP3      H2            -10.0484305720      -57.0233924159        9.3655236648  W2        9024            0.0000000000
     26890      8964  TIP3      OH2            -5.4696305720      -58.4318824159       10.0814436648  W2        9025            0.0000000000
     26891      8964  TIP3      H1             -4.8658705720      -57.8843424159        9.5795436648  W2        9025            0.0000000000
     26892      8964  TIP3      H2             -6.3394305720      -58.1128424159        9.8408536648  W2        9025            0.0000000000
     26893      8965  TIP3      OH2            -3.7425905720      -57.2930124159        8.4145336648  W2        9026            0.0000000000
     26894      8965  TIP3      H1             -3.1308405720      -57.8074424159        7.8878936648  W2        9026            0.0000000000
     26895      8965  TIP3      H2             -3.3602505720      -56.4158024159        8.4379736648  W2        9026            0.0000000000
     26896      8966  TIP3      OH2           -18.2856005720      -57.9052524159        7.7907236648  W2        9027            0.0000000000
     26897      8966  TIP3      H1            -19.0626205720      -58.1397624159        7.2833136648  W2        9027            0.0000000000
     26898      8966  TIP3      H2            -17.7552405720      -58.7020424159        7.7995236648  W2        9027            0.0000000000
     26899      8967  TIP3      OH2           -19.4492605720      -58.1074424159        3.5943336648  W2        9028            0.0000000000
     26900      8967  TIP3      H1            -19.0101905720      -57.4963924159        3.0026836648  W2        9028            0.0000000000
     26901      8967  TIP3      H2            -20.0830205720      -57.5690324159        4.0683336648  W2        9028            0.0000000000
     26902      8968  TIP3      OH2           -13.7063405720      -57.9785424159        7.6040336648  W2        9029            0.0000000000
     26903      8968  TIP3      H1            -12.8320005720      -57.5901124159        7.5744636648  W2        9029            0.0000000000
     26904      8968  TIP3      H2            -13.8422605720      -58.1937624159        8.5267536648  W2        9029            0.0000000000
     26905      8969  TIP3      OH2            -8.1495005720      -57.9485624159        9.2532036648  W2        9030            0.0000000000
     26906      8969  TIP3      H1             -8.0733405720      -57.8534024159        8.3038036648  W2        9030            0.0000000000
     26907      8969  TIP3      H2             -8.4245805720      -58.8562724159        9.3821136648  W2        9030            0.0000000000
     26908      8970  TIP3      OH2            -6.7962405720      -57.9227824159        4.9457036648  W2        9031            0.0000000000
     26909      8970  TIP3      H1             -7.4991305720      -57.3078624159        4.7358436648  W2        9031            0.0000000000
     26910      8970  TIP3      H2             -7.2411005720      -58.7601124159        5.0767936648  W2        9031            0.0000000000
     26911      8971  TIP3      OH2           -19.5483105720      -42.1592224159        4.4918436648  W2        9032            0.0000000000
     26912      8971  TIP3      H1            -20.2333205720      -42.1973324159        3.8243536648  W2        9032            0.0000000000
     26913      8971  TIP3      H2            -19.5445905720      -41.2464624159        4.7800536648  W2        9032            0.0000000000
     26914      8972  TIP3      OH2           -17.5883505720      -56.1912924159        2.0367436648  W2        9033            0.0000000000
     26915      8972  TIP3      H1            -17.0970105720      -56.8210524159        1.5092936648  W2        9033            0.0000000000
     26916      8972  TIP3      H2            -16.9647205720      -55.8953524159        2.6998636648  W2        9033            0.0000000000
     26917      8973  TIP3      OH2           -12.5623405720      -55.8981424159        4.4937936648  W2        9034            0.0000000000
     26918      8973  TIP3      H1            -12.3842105720      -56.5448224159        5.1766536648  W2        9034            0.0000000000
     26919      8973  TIP3      H2            -12.6157205720      -55.0643724159        4.9609036648  W2        9034            0.0000000000
     26920      8974  TIP3      OH2           -10.6839605720      -40.9497324159        2.8894636648  W2        9035            0.0000000000
     26921      8974  TIP3      H1             -9.8179405720      -40.5829924159        2.7112836648  W2        9035            0.0000000000
     26922      8974  TIP3      H2            -10.9306805720      -41.3889324159        2.0755436648  W2        9035            0.0000000000
     26923      8975  TIP3      OH2            -3.9750005720      -41.3867024159        5.5685736648  W2        9036            0.0000000000
     26924      8975  TIP3      H1             -4.1692905720      -42.1344924159        5.0035336648  W2        9036            0.0000000000
     26925      8975  TIP3      H2             -4.0139905720      -40.6286924159        4.9853636648  W2        9036            0.0000000000
     26926      8976  TIP3      OH2           -18.3278005720      -57.3910624159       17.3083436648  W2        9037            0.0000000000
     26927      8976  TIP3      H1            -18.6939805720      -58.1568024159       17.7508136648  W2        9037            0.0000000000
     26928      8976  TIP3      H2            -17.4149505720      -57.3620424159       17.5948536648  W2        9037            0.0000000000
     26929      8977  TIP3      OH2           -17.7301905720      -41.2391424159        1.5170536648  W2        9039            0.0000000000
     26930      8977  TIP3      H1            -17.9977305720      -40.9528524159        2.3903636648  W2        9039            0.0000000000
     26931      8977  TIP3      H2            -16.9589305720      -41.7852224159        1.6693036648  W2        9039            0.0000000000
     26932      8978  TIP3      OH2            -4.7573805720      -42.6354624159       17.7187536648  W2        9041            0.0000000000
     26933      8978  TIP3      H1             -5.5391905720      -42.8216624159       17.1988136648  W2        9041            0.0000000000
     26934      8978  TIP3      H2             -4.8293905720      -41.7060324159       17.9360036648  W2        9041            0.0000000000
     26935      8979  TIP3      OH2             9.6486594280      -48.7490224159        7.7494736648  W2        9042            0.0000000000
     26936      8979  TIP3      H1              9.7377694280      -47.8052024159        7.6171836648  W2        9042            0.0000000000
     26937      8979  TIP3      H2              9.0104194280      -49.0243824159        7.0914136648  W2        9042            0.0000000000
     26938      8980  TIP3      OH2             8.5817894280      -49.4939524159       11.1682936648  W2        9043            0.0000000000
     26939      8980  TIP3      H1              8.5435394280      -50.1403224159       11.8732536648  W2        9043            0.0000000000
     26940      8980  TIP3      H2              8.2594394280      -49.9605124159       10.3971636648  W2        9043            0.0000000000
     26941      8981  TIP3      OH2             0.9502894280      -49.8797424159       12.7612836648  W2        9044            0.0000000000
     26942      8981  TIP3      H1              0.9914994280      -50.5054124159       13.4845236648  W2        9044            0.0000000000
     26943      8981  TIP3      H2              1.6530594280      -49.2558824159       12.9433236648  W2        9044            0.0000000000
     26944      8982  TIP3      OH2            12.2878094280      -46.5549124159        9.4698036648  W2        9045            0.0000000000
     26945      8982  TIP3      H1             11.8470794280      -47.2753124159        9.9203636648  W2        9045            0.0000000000
     26946      8982  TIP3      H2             12.2747794280      -45.8341924159       10.0995736648  W2        9045            0.0000000000
     26947      8983  TIP3      OH2             1.8735994280      -45.4298524159       11.2961936648  W2        9046            0.0000000000
     26948      8983  TIP3      H1              1.5041194280      -46.2318024159       10.9266236648  W2        9046            0.0000000000
     26949      8983  TIP3      H2              2.8147094280      -45.5983624159       11.3425336648  W2        9046            0.0000000000
     26950      8984  TIP3      OH2            -1.5163505720      -51.7695924159        6.6890736648  W2        9047            0.0000000000
     26951      8984  TIP3      H1             -1.9640105720      -50.9237224159        6.6707236648  W2        9047            0.0000000000
     26952      8984  TIP3      H2             -2.0772305720      -52.3491724159        6.1735836648  W2        9047            0.0000000000
     26953      8985  TIP3      OH2            -0.8057405720      -49.6076324159        8.8148736648  W2        9048            0.0000000000
     26954      8985  TIP3      H1             -0.5923905720      -50.3774724159        9.3421736648  W2        9048            0.0000000000
     26955      8985  TIP3      H2             -0.0679805720      -49.5179624159        8.2116336648  W2        9048            0.0000000000
     26956      8986  TIP3      OH2             9.3993594280      -41.4507424159        9.6818436648  W2        9049            0.0000000000
     26957      8986  TIP3      H1             10.0189994280      -42.1272724159        9.4087636648  W2        9049            0.0000000000
     26958      8986  TIP3      H2              9.1910994280      -41.6686624159       10.5903336648  W2        9049            0.0000000000
     26959      8987  TIP3      OH2             6.9712294280      -47.0618124159       11.5743936648  W2        9050            0.0000000000
     26960      8987  TIP3      H1              7.2750194280      -47.7476724159       10.9798036648  W2        9050            0.0000000000
     26961      8987  TIP3      H2              7.6926294280      -46.9429424159       12.1921936648  W2        9050            0.0000000000
     26962      8988  TIP3      OH2            15.6342094280      -55.4602824159       12.4350136648  W2        9051            0.0000000000
     26963      8988  TIP3      H1             15.6834294280      -54.8501624159       13.1709236648  W2        9051            0.0000000000
     26964      8988  TIP3      H2             16.0597194280      -54.9991924159       11.7121236648  W2        9051            0.0000000000
     26965      8989  TIP3      OH2            10.1119294280      -52.6675724159       11.9018736648  W2        9052            0.0000000000
     26966      8989  TIP3      H1             10.2545194280      -53.6138724159       11.9220336648  W2        9052            0.0000000000
     26967      8989  TIP3      H2             10.0058294280      -52.4605924159       10.9733636648  W2        9052            0.0000000000
     26968      8990  TIP3      OH2             3.2667594280      -54.5659324159        9.1743536648  W2        9053            0.0000000000
     26969      8990  TIP3      H1              3.3098694280      -53.7060824159        8.7559836648  W2        9053            0.0000000000
     26970      8990  TIP3      H2              2.8091694280      -55.1184624159        8.5406736648  W2        9053            0.0000000000
     26971      8991  TIP3      OH2            10.9890294280      -54.4353724159        7.5751836648  W2        9054            0.0000000000
     26972      8991  TIP3      H1             11.6354594280      -54.7640524159        8.1999436648  W2        9054            0.0000000000
     26973      8991  TIP3      H2             11.4989694280      -53.9174724159        6.9523236648  W2        9054            0.0000000000
     26974      8992  TIP3      OH2            -0.1130905720      -52.1693524159        9.9364936648  W2        9055            0.0000000000
     26975      8992  TIP3      H1              0.5405694280      -52.7191824159       10.3685036648  W2        9055            0.0000000000
     26976      8992  TIP3      H2             -0.0891605720      -52.4434524159        9.0196936648  W2        9055            0.0000000000
     26977      8993  TIP3      OH2             5.0433594280      -50.6192224159        9.1516436648  W2        9056            0.0000000000
     26978      8993  TIP3      H1              5.6594594280      -51.1456824159        9.6610436648  W2        9056            0.0000000000
     26979      8993  TIP3      H2              4.4572394280      -51.2593524159        8.7480036648  W2        9056            0.0000000000
     26980      8994  TIP3      OH2            16.0256694280      -53.9823624159       14.6709936648  W2        9057            0.0000000000
     26981      8994  TIP3      H1             15.3371294280      -53.3242924159       14.5756536648  W2        9057            0.0000000000
     26982      8994  TIP3      H2             16.0411294280      -54.1795724159       15.6075336648  W2        9057            0.0000000000
     26983      8995  TIP3      OH2             2.0769494280      -55.6480924159       13.2484336648  W2        9058            0.0000000000
     26984      8995  TIP3      H1              1.8581194280      -55.1180324159       12.4820336648  W2        9058            0.0000000000
     26985      8995  TIP3      H2              1.4090394280      -55.4215424159       13.8955736648  W2        9058            0.0000000000
     26986      8996  TIP3      OH2             9.4459294280      -46.1479824159        6.7923436648  W2        9059            0.0000000000
     26987      8996  TIP3      H1              9.1504394280      -46.4707524159        5.9410336648  W2        9059            0.0000000000
     26988      8996  TIP3      H2              9.1217094280      -45.2483124159        6.8336036648  W2        9059            0.0000000000
     26989      8997  TIP3      OH2             4.6460894280      -47.9725224159       13.5358036648  W2        9060            0.0000000000
     26990      8997  TIP3      H1              3.9059994280      -47.3743724159       13.6393236648  W2        9060            0.0000000000
     26991      8997  TIP3      H2              5.3600394280      -47.4185624159       13.2201636648  W2        9060            0.0000000000
     26992      8998  TIP3      OH2            12.7528694280      -55.1444424159        9.5557736648  W2        9061            0.0000000000
     26993      8998  TIP3      H1             12.5376694280      -55.9101024159       10.0883736648  W2        9061            0.0000000000
     26994      8998  TIP3      H2             13.4086094280      -54.6719824159       10.0686236648  W2        9061            0.0000000000
     26995      8999  TIP3      OH2             1.6706794280      -53.7559124159       11.2006536648  W2        9062            0.0000000000
     26996      8999  TIP3      H1              2.2843094280      -53.1231524159       11.5738936648  W2        9062            0.0000000000
     26997      8999  TIP3      H2              2.1827494280      -54.2284124159       10.5443436648  W2        9062            0.0000000000
     26998      9000  TIP3      OH2             3.0535194280      -46.0082224159       14.3229536648  W2        9063            0.0000000000
     26999      9000  TIP3      H1              3.0482794280      -45.1288724159       13.9448836648  W2        9063            0.0000000000
     27000      9000  TIP3      H2              2.1999294280      -46.0918124159       14.7479436648  W2        9063            0.0000000000
     27001      9001  TIP3      OH2            -0.8253905720      -46.3374324159        5.1048836648  W2        9064            0.0000000000
     27002      9001  TIP3      H1             -1.0973005720      -46.1083324159        4.2161736648  W2        9064            0.0000000000
     27003      9001  TIP3      H2             -0.7798205720      -45.4995524159        5.5654136648  W2        9064            0.0000000000
     27004      9002  TIP3      OH2            12.7995794280      -44.7158424159       11.8177336648  W2        9065            0.0000000000
     27005      9002  TIP3      H1             11.8579494280      -44.6574524159       11.9794236648  W2        9065            0.0000000000
     27006      9002  TIP3      H2             13.0761894280      -43.8097924159       11.6807036648  W2        9065            0.0000000000
     27007      9003  TIP3      OH2            13.1002794280      -56.4293124159       13.2351236648  W2        9066            0.0000000000
     27008      9003  TIP3      H1             12.3641994280      -55.8186024159       13.1972536648  W2        9066            0.0000000000
     27009      9003  TIP3      H2             13.7836794280      -56.0144124159       12.7087636648  W2        9066            0.0000000000
     27010      9004  TIP3      OH2             6.1034194280      -58.3425824159       10.7009236648  W2        9067            0.0000000000
     27011      9004  TIP3      H1              5.9858394280      -59.2909824159       10.6467536648  W2        9067            0.0000000000
     27012      9004  TIP3      H2              5.2484294280      -58.0099724159       10.9740336648  W2        9067            0.0000000000
     27013      9005  TIP3      OH2            11.0516994280      -42.9344924159        8.4428936648  W2        9068            0.0000000000
     27014      9005  TIP3      H1             11.4769294280      -43.6417024159        7.9578536648  W2        9068            0.0000000000
     27015      9005  TIP3      H2             11.3686994280      -42.1332224159        8.0261136648  W2        9068            0.0000000000
     27016      9006  TIP3      OH2            12.2113494280      -45.0336424159        6.9515536648  W2        9069            0.0000000000
     27017      9006  TIP3      H1             11.9538294280      -45.7236324159        6.3401436648  W2        9069            0.0000000000
     27018      9006  TIP3      H2             12.2824294280      -45.4765224159        7.7971436648  W2        9069            0.0000000000
     27019      9007  TIP3      OH2            13.8973694280      -46.4669724159       15.4289036648  W2        9070            0.0000000000
     27020      9007  TIP3      H1             14.0369994280      -47.0587224159       14.6896036648  W2        9070            0.0000000000
     27021      9007  TIP3      H2             14.0646494280      -45.5943824159       15.0727836648  W2        9070            0.0000000000
     27022      9008  TIP3      OH2             8.3699094280      -49.5050224159        5.2015036648  W2        9071            0.0000000000
     27023      9008  TIP3      H1              7.6584594280      -48.9700524159        4.8495536648  W2        9071            0.0000000000
     27024      9008  TIP3      H2              9.0608694280      -49.4498124159        4.5413936648  W2        9071            0.0000000000
     27025      9009  TIP3      OH2             8.4238294280      -51.0475924159        2.2400036648  W2        9072            0.0000000000
     27026      9009  TIP3      H1              9.1248194280      -51.0249024159        2.8914036648  W2        9072            0.0000000000
     27027      9009  TIP3      H2              8.7261194280      -51.6756224159        1.5839336648  W2        9072            0.0000000000
     27028      9010  TIP3      OH2            15.7392994280      -50.1271724159       13.4949436648  W2        9073            0.0000000000
     27029      9010  TIP3      H1             15.0867094280      -49.4326124159       13.5840336648  W2        9073            0.0000000000
     27030      9010  TIP3      H2             16.2043294280      -49.9170824159       12.6851036648  W2        9073            0.0000000000
     27031      9011  TIP3      OH2            11.7756794280      -49.2956924159        6.1530936648  W2        9074            0.0000000000
     27032      9011  TIP3      H1             11.0437794280      -49.0673224159        6.7261536648  W2        9074            0.0000000000
     27033      9011  TIP3      H2             12.2228994280      -50.0094224159        6.6078436648  W2        9074            0.0000000000
     27034      9012  TIP3      OH2            11.6730294280      -51.1214324159       15.2207936648  W2        9075            0.0000000000
     27035      9012  TIP3      H1             11.7529394280      -50.3579924159       15.7926436648  W2        9075            0.0000000000
     27036      9012  TIP3      H2             11.0717994280      -50.8421924159       14.5303036648  W2        9075            0.0000000000
     27037      9013  TIP3      OH2             3.4210494280      -48.6650724159        8.0355936648  W2        9076            0.0000000000
     27038      9013  TIP3      H1              3.0905694280      -49.0357324159        7.2172936648  W2        9076            0.0000000000
     27039      9013  TIP3      H2              4.0094594280      -49.3356724159        8.3824236648  W2        9076            0.0000000000
     27040      9014  TIP3      OH2             4.7877994280      -45.2370124159       10.7168136648  W2        9077            0.0000000000
     27041      9014  TIP3      H1              4.6929294280      -45.8157024159        9.9602736648  W2        9077            0.0000000000
     27042      9014  TIP3      H2              5.5171594280      -45.6084424159       11.2130936648  W2        9077            0.0000000000
     27043      9015  TIP3      OH2             3.7875994280      -49.8965124159       11.6690936648  W2        9078            0.0000000000
     27044      9015  TIP3      H1              4.3528494280      -49.7750924159       10.9062136648  W2        9078            0.0000000000
     27045      9015  TIP3      H2              4.1064894280      -49.2590124159       12.3079436648  W2        9078            0.0000000000
     27046      9016  TIP3      OH2            10.0968194280      -44.3933224159       12.4031436648  W2        9079            0.0000000000
     27047      9016  TIP3      H1              9.8564794280      -43.7310124159       13.0510636648  W2        9079            0.0000000000
     27048      9016  TIP3      H2              9.8986394280      -45.2278024159       12.8281036648  W2        9079            0.0000000000
     27049      9017  TIP3      OH2             4.6676694280      -45.4972424159       16.3862836648  W2        9080            0.0000000000
     27050      9017  TIP3      H1              4.3564194280      -44.7149224159       16.8416036648  W2        9080            0.0000000000
     27051      9017  TIP3      H2              4.0176894280      -45.6503324159       15.7004836648  W2        9080            0.0000000000
     27052      9018  TIP3      OH2            10.6466294280      -50.1334024159        3.8382136648  W2        9081            0.0000000000
     27053      9018  TIP3      H1             11.2261794280      -49.9833724159        4.5851036648  W2        9081            0.0000000000
     27054      9018  TIP3      H2             11.0606294280      -49.6626624159        3.1148536648  W2        9081            0.0000000000
     27055      9019  TIP3      OH2             1.5876594280      -49.2991324159       15.6148536648  W2        9082            0.0000000000
     27056      9019  TIP3      H1              1.6579794280      -48.6484524159       16.3133536648  W2        9082            0.0000000000
     27057      9019  TIP3      H2              0.6968794280      -49.1963824159       15.2799436648  W2        9082            0.0000000000
     27058      9020  TIP3      OH2             8.3731194280      -43.3965524159        7.2735236648  W2        9083            0.0000000000
     27059      9020  TIP3      H1              8.8468794280      -43.1009224159        8.0509436648  W2        9083            0.0000000000
     27060      9020  TIP3      H2              7.8100494280      -42.6583924159        7.0404836648  W2        9083            0.0000000000
     27061      9021  TIP3      OH2             2.9072594280      -43.4257424159       17.1496636648  W2        9084            0.0000000000
     27062      9021  TIP3      H1              2.9147894280      -43.5617724159       16.2022136648  W2        9084            0.0000000000
     27063      9021  TIP3      H2              1.9912994280      -43.5429324159       17.4016636648  W2        9084            0.0000000000
     27064      9022  TIP3      OH2            14.3454694280      -58.3833624159        3.6511836648  W2        9085            0.0000000000
     27065      9022  TIP3      H1             13.4455394280      -58.2444624159        3.9462436648  W2        9085            0.0000000000
     27066      9022  TIP3      H2             14.5973094280      -57.5519024159        3.2493536648  W2        9085            0.0000000000
     27067      9023  TIP3      OH2             2.4113194280      -49.5956424159        5.6248736648  W2        9086            0.0000000000
     27068      9023  TIP3      H1              2.1194494280      -48.8274724159        5.1340036648  W2        9086            0.0000000000
     27069      9023  TIP3      H2              1.7368394280      -50.2550224159        5.4620136648  W2        9086            0.0000000000
     27070      9024  TIP3      OH2            15.5346094280      -44.0171224159        2.0275736648  W2        9087            0.0000000000
     27071      9024  TIP3      H1             15.6079594280      -43.0781024159        2.1981036648  W2        9087            0.0000000000
     27072      9024  TIP3      H2             16.4401194280      -44.3222624159        1.9713036648  W2        9087            0.0000000000
     27073      9025  TIP3      OH2            -1.4956705720      -47.2327224159       14.4398536648  W2        9088            0.0000000000
     27074      9025  TIP3      H1             -1.9968305720      -47.2607824159       13.6248236648  W2        9088            0.0000000000
     27075      9025  TIP3      H2             -1.4903005720      -48.1384024159       14.7495836648  W2        9088            0.0000000000
     27076      9026  TIP3      OH2            -1.7454005720      -44.4523424159       11.3238736648  W2        9089            0.0000000000
     27077      9026  TIP3      H1             -0.7993405720      -44.5966424159       11.3048236648  W2        9089            0.0000000000
     27078      9026  TIP3      H2             -1.8577705720      -43.6680624159       11.8609936648  W2        9089            0.0000000000
     27079      9027  TIP3      OH2            16.4524494280      -43.7863724159       17.0062436648  W2        9090            0.0000000000
     27080      9027  TIP3      H1             16.4031294280      -44.7415624159       16.9690036648  W2        9090            0.0000000000
     27081      9027  TIP3      H2             15.6256794280      -43.5188424159       17.4076236648  W2        9090            0.0000000000
     27082      9028  TIP3      OH2             7.4308494280      -44.2124524159       15.8823836648  W2        9091            0.0000000000
     27083      9028  TIP3      H1              7.5183094280      -43.3859924159       16.3572936648  W2        9091            0.0000000000
     27084      9028  TIP3      H2              6.5673594280      -44.5420724159       16.1313136648  W2        9091            0.0000000000
     27085      9029  TIP3      OH2             7.8454294280      -40.4400824159        5.6884436648  W2        9092            0.0000000000
     27086      9029  TIP3      H1              7.7700294280      -40.5613624159        4.7419636648  W2        9092            0.0000000000
     27087      9029  TIP3      H2              7.8782994280      -39.4908124159        5.8069036648  W2        9092            0.0000000000
     27088      9030  TIP3      OH2             1.4988094280      -41.6513824159        7.4693436648  W2        9093            0.0000000000
     27089      9030  TIP3      H1              1.6508494280      -41.9993424159        8.3479936648  W2        9093            0.0000000000
     27090      9030  TIP3      H2              0.6478494280      -42.0076524159        7.2140636648  W2        9093            0.0000000000
     27091      9031  TIP3      OH2            10.9470294280      -41.2860624159        2.6906836648  W2        9094            0.0000000000
     27092      9031  TIP3      H1             11.3218694280      -42.0304524159        2.2199436648  W2        9094            0.0000000000
     27093      9031  TIP3      H2             10.9513994280      -41.5560024159        3.6090136648  W2        9094            0.0000000000
     27094      9032  TIP3      OH2            10.6158394280      -41.3603524159        5.4399036648  W2        9095            0.0000000000
     27095      9032  TIP3      H1              9.6808194280      -41.2601624159        5.6186036648  W2        9095            0.0000000000
     27096      9032  TIP3      H2             10.8960294280      -42.0697524159        6.0182236648  W2        9095            0.0000000000
     27097      9033  TIP3      OH2            13.6044294280      -52.2931224159       17.4864636648  W2        9096            0.0000000000
     27098      9033  TIP3      H1             13.1971094280      -51.8125624159       16.7657936648  W2        9096            0.0000000000
     27099      9033  TIP3      H2             13.6449994280      -53.1985224159       17.1785436648  W2        9096            0.0000000000
     27100      9034  TIP3      OH2             0.7533794280      -45.9091824159       15.4831336648  W2        9097            0.0000000000
     27101      9034  TIP3      H1              0.9695094280      -46.2706224159       16.3427136648  W2        9097            0.0000000000
     27102      9034  TIP3      H2             -0.1021505720      -46.2838024159       15.2734836648  W2        9097            0.0000000000
     27103      9035  TIP3      OH2             3.3721794280      -57.4391324159       11.4785536648  W2        9098            0.0000000000
     27104      9035  TIP3      H1              2.5105494280      -57.5263124159       11.0708436648  W2        9098            0.0000000000
     27105      9035  TIP3      H2              3.3497494280      -56.5831224159       11.9063136648  W2        9098            0.0000000000
     27106      9036  TIP3      OH2             8.0349594280      -57.7170924159       14.8532536648  W2        9099            0.0000000000
     27107      9036  TIP3      H1              8.4552694280      -58.1323824159       15.6063136648  W2        9099            0.0000000000
     27108      9036  TIP3      H2              7.1019194280      -57.8957624159       14.9704536648  W2        9099            0.0000000000
     27109      9037  TIP3      OH2            11.3614494280      -53.9615724159       15.7067036648  W2        9100            0.0000000000
     27110      9037  TIP3      H1             10.8473994280      -54.0873524159       16.5043036648  W2        9100            0.0000000000
     27111      9037  TIP3      H2             11.2059194280      -53.0492624159       15.4623236648  W2        9100            0.0000000000
     27112      9038  TIP3      OH2            12.1239394280      -49.1005724159        1.4680036648  W2        9101            0.0000000000
     27113      9038  TIP3      H1             12.1660194280      -49.3231824159        0.5380036648  W2        9101            0.0000000000
     27114      9038  TIP3      H2             12.9731494280      -48.7018624159        1.6579936648  W2        9101            0.0000000000
     27115      9039  TIP3      OH2             7.6966894280      -55.2247524159        2.1383336648  W2        9102            0.0000000000
     27116      9039  TIP3      H1              7.4431694280      -55.2055924159        3.0611436648  W2        9102            0.0000000000
     27117      9039  TIP3      H2              7.4398994280      -56.0962124159        1.8369536648  W2        9102            0.0000000000
     27118      9040  TIP3      OH2             3.4631894280      -52.4736824159       12.5735736648  W2        9103            0.0000000000
     27119      9040  TIP3      H1              2.8213994280      -52.5139524159       13.2825836648  W2        9103            0.0000000000
     27120      9040  TIP3      H2              3.5003894280      -51.5472124159       12.3358736648  W2        9103            0.0000000000
     27121      9041  TIP3      OH2             3.4600994280      -52.2526724159        7.4855736648  W2        9104            0.0000000000
     27122      9041  TIP3      H1              2.5673894280      -52.5930624159        7.4269536648  W2        9104            0.0000000000
     27123      9041  TIP3      H2              3.9107594280      -52.6295824159        6.7298936648  W2        9104            0.0000000000
     27124      9042  TIP3      OH2             8.9956494280      -51.8366424159        6.3026536648  W2        9105            0.0000000000
     27125      9042  TIP3      H1              8.5866794280      -51.0217824159        6.0111336648  W2        9105            0.0000000000
     27126      9042  TIP3      H2              9.7162694280      -51.9766324159        5.6883636648  W2        9105            0.0000000000
     27127      9043  TIP3      OH2             8.0978094280      -51.6610024159       17.7907236648  W2        9106            0.0000000000
     27128      9043  TIP3      H1              7.5351894280      -52.3658424159       18.1115036648  W2        9106            0.0000000000
     27129      9043  TIP3      H2              8.9241494280      -51.7818124159       18.2584836648  W2        9106            0.0000000000
     27130      9044  TIP3      OH2            10.0004194280      -52.3906024159        9.1166236648  W2        9107            0.0000000000
     27131      9044  TIP3      H1              9.8048694280      -51.7849224159        8.4016836648  W2        9107            0.0000000000
     27132      9044  TIP3      H2             10.1816794280      -53.2240824159        8.6822536648  W2        9107            0.0000000000
     27133      9045  TIP3      OH2             1.2132394280      -52.1533324159       14.4407736648  W2        9108            0.0000000000
     27134      9045  TIP3      H1              1.1751794280      -51.7531724159       15.3094836648  W2        9108            0.0000000000
     27135      9045  TIP3      H2              0.7223494280      -52.9700924159       14.5310636648  W2        9108            0.0000000000
     27136      9046  TIP3      OH2             4.5789794280      -54.7791024159        1.2393736648  W2        9109            0.0000000000
     27137      9046  TIP3      H1              4.1480494280      -55.2240924159        1.9691136648  W2        9109            0.0000000000
     27138      9046  TIP3      H2              3.8608494280      -54.4074724159        0.7271236648  W2        9109            0.0000000000
     27139      9047  TIP3      OH2            -2.1786805720      -55.0371524159        8.2912436648  W2        9110            0.0000000000
     27140      9047  TIP3      H1             -1.5479105720      -55.0659424159        9.0106336648  W2        9110            0.0000000000
     27141      9047  TIP3      H2             -1.7292505720      -55.4622824159        7.5608336648  W2        9110            0.0000000000
     27142      9048  TIP3      OH2            -0.9044705720      -54.2909524159        3.7152836648  W2        9111            0.0000000000
     27143      9048  TIP3      H1             -0.4303005720      -53.6999624159        3.1303736648  W2        9111            0.0000000000
     27144      9048  TIP3      H2             -1.6218305720      -53.7606624159        4.0622936648  W2        9111            0.0000000000
     27145      9049  TIP3      OH2             9.2643394280      -50.7524724159       13.7878636648  W2        9112            0.0000000000
     27146      9049  TIP3      H1              9.5878194280      -51.3835024159       13.1449136648  W2        9112            0.0000000000
     27147      9049  TIP3      H2              8.8242694280      -51.2872524159       14.4486036648  W2        9112            0.0000000000
     27148      9050  TIP3      OH2             6.0416294280      -54.8249224159        8.5719836648  W2        9113            0.0000000000
     27149      9050  TIP3      H1              5.1307394280      -54.7682424159        8.8605836648  W2        9113            0.0000000000
     27150      9050  TIP3      H2              6.5469194280      -54.8853724159        9.3827036648  W2        9113            0.0000000000
     27151      9051  TIP3      OH2             0.8699694280      -53.1962924159        7.3987436648  W2        9114            0.0000000000
     27152      9051  TIP3      H1             -0.0192305720      -53.0967424159        7.0587036648  W2        9114            0.0000000000
     27153      9051  TIP3      H2              1.1664594280      -54.0379924159        7.0525336648  W2        9114            0.0000000000
     27154      9052  TIP3      OH2             4.5231494280      -53.1960324159        5.0552036648  W2        9115            0.0000000000
     27155      9052  TIP3      H1              5.4546994280      -53.0670324159        5.2335136648  W2        9115            0.0000000000
     27156      9052  TIP3      H2              4.3081794280      -52.5266024159        4.4056736648  W2        9115            0.0000000000
     27157      9053  TIP3      OH2            10.4468194280      -55.5902924159       11.8361636648  W2        9116            0.0000000000
     27158      9053  TIP3      H1              9.7699794280      -55.4589824159       12.5001336648  W2        9116            0.0000000000
     27159      9053  TIP3      H2              9.9613094280      -55.7453424159       11.0259336648  W2        9116            0.0000000000
     27160      9054  TIP3      OH2             3.1971694280      -52.0018124159        2.6218136648  W2        9117            0.0000000000
     27161      9054  TIP3      H1              2.6546794280      -52.3814324159        1.9305736648  W2        9117            0.0000000000
     27162      9054  TIP3      H2              4.0306594280      -51.8073424159        2.1932236648  W2        9117            0.0000000000
     27163      9055  TIP3      OH2             1.3323094280      -47.4446224159       17.7209736648  W2        9119            0.0000000000
     27164      9055  TIP3      H1              2.0645494280      -47.1900324159       18.2824236648  W2        9119            0.0000000000
     27165      9055  TIP3      H2              0.5521794280      -47.2400824159       18.2365136648  W2        9119            0.0000000000
     27166      9056  TIP3      OH2             7.3615994280      -52.0376224159       10.4589436648  W2        9120            0.0000000000
     27167      9056  TIP3      H1              7.9259394280      -52.5839624159        9.9119036648  W2        9120            0.0000000000
     27168      9056  TIP3      H2              7.2139394280      -52.5594324159       11.2477036648  W2        9120            0.0000000000
     27169      9057  TIP3      OH2             2.3635694280      -55.9010124159        6.8774236648  W2        9121            0.0000000000
     27170      9057  TIP3      H1              2.0465194280      -56.8034824159        6.8419636648  W2        9121            0.0000000000
     27171      9057  TIP3      H2              3.1449794280      -55.8992724159        6.3245836648  W2        9121            0.0000000000
     27172      9058  TIP3      OH2             5.9881894280      -53.6490124159       12.8729836648  W2        9122            0.0000000000
     27173      9058  TIP3      H1              5.1527194280      -53.1950624159       12.9832236648  W2        9122            0.0000000000
     27174      9058  TIP3      H2              6.5122494280      -53.3731624159       13.6249736648  W2        9122            0.0000000000
     27175      9059  TIP3      OH2             6.5324494280      -47.4362424159        4.5576236648  W2        9123            0.0000000000
     27176      9059  TIP3      H1              5.7875494280      -47.9437124159        4.2354136648  W2        9123            0.0000000000
     27177      9059  TIP3      H2              6.3981694280      -47.3874424159        5.5041036648  W2        9123            0.0000000000
     27178      9060  TIP3      OH2            13.6823394280      -48.3034224159       13.3443836648  W2        9124            0.0000000000
     27179      9060  TIP3      H1             14.3242194280      -47.8467924159       12.8006036648  W2        9124            0.0000000000
     27180      9060  TIP3      H2             12.8520294280      -48.1901824159       12.8817936648  W2        9124            0.0000000000
     27181      9061  TIP3      OH2            10.4301294280      -54.6222524159        2.7568836648  W2        9125            0.0000000000
     27182      9061  TIP3      H1              9.4915494280      -54.5106924159        2.6057636648  W2        9125            0.0000000000
     27183      9061  TIP3      H2             10.7273394280      -53.7655624159        3.0634536648  W2        9125            0.0000000000
     27184      9062  TIP3      OH2             8.0516594280      -47.2519124159       15.7945336648  W2        9126            0.0000000000
     27185      9062  TIP3      H1              7.7062694280      -47.6336724159       16.6014936648  W2        9126            0.0000000000
     27186      9062  TIP3      H2              7.8516694280      -46.3185524159       15.8658236648  W2        9126            0.0000000000
     27187      9063  TIP3      OH2            11.1484794280      -52.7549824159        4.4176236648  W2        9127            0.0000000000
     27188      9063  TIP3      H1             12.0403794280      -52.8924824159        4.7367436648  W2        9127            0.0000000000
     27189      9063  TIP3      H2             11.2048394280      -51.9643724159        3.8809736648  W2        9127            0.0000000000
     27190      9064  TIP3      OH2             1.6572794280      -48.1412424159       10.3274136648  W2        9128            0.0000000000
     27191      9064  TIP3      H1              2.4019994280      -48.1436724159        9.7260636648  W2        9128            0.0000000000
     27192      9064  TIP3      H2              1.7349394280      -48.9648624159       10.8089236648  W2        9128            0.0000000000
     27193      9065  TIP3      OH2             8.6578594280      -45.9778124159        3.5830836648  W2        9129            0.0000000000
     27194      9065  TIP3      H1              8.3626994280      -45.1510224159        3.9645636648  W2        9129            0.0000000000
     27195      9065  TIP3      H2              7.9548594280      -46.5971224159        3.7792236648  W2        9129            0.0000000000
     27196      9066  TIP3      OH2            -1.3347505720      -49.6805524159       15.6422636648  W2        9130            0.0000000000
     27197      9066  TIP3      H1             -1.1118905720      -50.0985924159       16.4740136648  W2        9130            0.0000000000
     27198      9066  TIP3      H2             -1.9367405720      -50.2930524159       15.2195436648  W2        9130            0.0000000000
     27199      9067  TIP3      OH2            10.3020194280      -44.7903624159       15.7450336648  W2        9132            0.0000000000
     27200      9067  TIP3      H1              9.4014494280      -44.6071024159       15.4774236648  W2        9132            0.0000000000
     27201      9067  TIP3      H2             10.3361294280      -44.5314324159       16.6659136648  W2        9132            0.0000000000
     27202      9068  TIP3      OH2            16.0333494280      -52.5455724159        4.1122936648  W2        9133            0.0000000000
     27203      9068  TIP3      H1             15.4789794280      -52.9417724159        3.4400436648  W2        9133            0.0000000000
     27204      9068  TIP3      H2             16.1337094280      -51.6350524159        3.8346236648  W2        9133            0.0000000000
     27205      9069  TIP3      OH2            15.9965494280      -46.7454024159       16.9494436648  W2        9134            0.0000000000
     27206      9069  TIP3      H1             15.1453994280      -46.5070224159       16.5820836648  W2        9134            0.0000000000
     27207      9069  TIP3      H2             16.5868894280      -46.7620824159       16.1961536648  W2        9134            0.0000000000
     27208      9070  TIP3      OH2            14.3285194280      -43.7595324159        4.5775036648  W2        9135            0.0000000000
     27209      9070  TIP3      H1             13.9556294280      -44.5851524159        4.8865636648  W2        9135            0.0000000000
     27210      9070  TIP3      H2             14.6058694280      -43.9425924159        3.6798436648  W2        9135            0.0000000000
     27211      9071  TIP3      OH2            11.4889094280      -48.9515824159       11.5986936648  W2        9136            0.0000000000
     27212      9071  TIP3      H1             10.5605994280      -49.1833924159       11.5716236648  W2        9136            0.0000000000
     27213      9071  TIP3      H2             11.9400194280      -49.7286024159       11.2685736648  W2        9136            0.0000000000
     27214      9072  TIP3      OH2             4.0322194280      -44.6234224159        7.7315636648  W2        9137            0.0000000000
     27215      9072  TIP3      H1              4.5594394280      -43.8499824159        7.5314436648  W2        9137            0.0000000000
     27216      9072  TIP3      H2              3.1520694280      -44.3985024159        7.4299636648  W2        9137            0.0000000000
     27217      9073  TIP3      OH2            -0.2130105720      -49.7610124159        2.3188036648  W2        9138            0.0000000000
     27218      9073  TIP3      H1              0.4029794280      -49.1342924159        2.6982836648  W2        9138            0.0000000000
     27219      9073  TIP3      H2             -1.0747505720      -49.4450324159        2.5904536648  W2        9138            0.0000000000
     27220      9074  TIP3      OH2             5.4594494280      -46.9604324159        7.3079936648  W2        9139            0.0000000000
     27221      9074  TIP3      H1              5.2184494280      -46.0349924159        7.3495236648  W2        9139            0.0000000000
     27222      9074  TIP3      H2              4.7188094280      -47.4193024159        7.7043836648  W2        9139            0.0000000000
     27223      9075  TIP3      OH2             5.9741094280      -42.8110724159       13.6231036648  W2        9140            0.0000000000
     27224      9075  TIP3      H1              6.3365794280      -41.9565124159       13.3895436648  W2        9140            0.0000000000
     27225      9075  TIP3      H2              6.5056294280      -43.1029124159       14.3637336648  W2        9140            0.0000000000
     27226      9076  TIP3      OH2             4.1425294280      -41.9386724159        6.8532136648  W2        9141            0.0000000000
     27227      9076  TIP3      H1              3.1925794280      -41.8329324159        6.9045436648  W2        9141            0.0000000000
     27228      9076  TIP3      H2              4.4943394280      -41.1179324159        7.1979636648  W2        9141            0.0000000000
     27229      9077  TIP3      OH2             9.5181894280      -46.7120024159       13.3236636648  W2        9142            0.0000000000
     27230      9077  TIP3      H1              9.0923194280      -46.9398324159       14.1500636648  W2        9142            0.0000000000
     27231      9077  TIP3      H2             10.0987694280      -47.4508224159       13.1411936648  W2        9142            0.0000000000
     27232      9078  TIP3      OH2            11.7210794280      -45.7829524159        2.3975636648  W2        9143            0.0000000000
     27233      9078  TIP3      H1             12.0743894280      -46.1629724159        3.2019136648  W2        9143            0.0000000000
     27234      9078  TIP3      H2             10.7724294280      -45.8764724159        2.4844936648  W2        9143            0.0000000000
     27235      9079  TIP3      OH2            12.1766094280      -42.1600524159       15.7931436648  W2        9144            0.0000000000
     27236      9079  TIP3      H1             11.5749294280      -42.7157624159       15.2977736648  W2        9144            0.0000000000
     27237      9079  TIP3      H2             12.4579794280      -41.4930724159       15.1668836648  W2        9144            0.0000000000
     27238      9080  TIP3      OH2            16.2245194280      -41.3037024159        2.5985836648  W2        9145            0.0000000000
     27239      9080  TIP3      H1             16.9683094280      -40.7176524159        2.4587436648  W2        9145            0.0000000000
     27240      9080  TIP3      H2             15.5303294280      -40.7351224159        2.9318236648  W2        9145            0.0000000000
     27241      9081  TIP3      OH2             0.2991994280      -54.9272824159       15.2004036648  W2        9146            0.0000000000
     27242      9081  TIP3      H1             -0.5935705720      -54.5887424159       15.1328036648  W2        9146            0.0000000000
     27243      9081  TIP3      H2              0.2004794280      -55.7826724159       15.6184836648  W2        9146            0.0000000000
     27244      9082  TIP3      OH2            12.5870094280      -47.1107524159        4.6243536648  W2        9147            0.0000000000
     27245      9082  TIP3      H1             12.3097694280      -47.8388224159        5.1804636648  W2        9147            0.0000000000
     27246      9082  TIP3      H2             13.5143094280      -46.9915524159        4.8296136648  W2        9147            0.0000000000
     27247      9083  TIP3      OH2            -0.0496005720      -43.1228424159       13.6353436648  W2        9148            0.0000000000
     27248      9083  TIP3      H1              0.1674294280      -44.0546024159       13.6043136648  W2        9148            0.0000000000
     27249      9083  TIP3      H2              0.1967494280      -42.8483424159       14.5186236648  W2        9148            0.0000000000
     27250      9084  TIP3      OH2             5.8118594280      -44.6713424159        0.8445636648  W2        9149            0.0000000000
     27251      9084  TIP3      H1              6.0508394280      -45.4195324159        0.2974536648  W2        9149            0.0000000000
     27252      9084  TIP3      H2              5.5429894280      -45.0591724159        1.6773436648  W2        9149            0.0000000000
     27253      9085  TIP3      OH2             4.7489194280      -45.1009624159        3.3008236648  W2        9150            0.0000000000
     27254      9085  TIP3      H1              4.8957194280      -45.6209824159        4.0909136648  W2        9150            0.0000000000
     27255      9085  TIP3      H2              4.7460894280      -44.1942024159        3.6074136648  W2        9150            0.0000000000
     27256      9086  TIP3      OH2             1.2020294280      -47.8486324159        3.8113636648  W2        9151            0.0000000000
     27257      9086  TIP3      H1              0.5159594280      -47.4963824159        4.3783336648  W2        9151            0.0000000000
     27258      9086  TIP3      H2              1.7248194280      -47.0856724159        3.5647936648  W2        9151            0.0000000000
     27259      9087  TIP3      OH2             9.0335394280      -55.1862524159       14.0902636648  W2        9152            0.0000000000
     27260      9087  TIP3      H1              9.7323294280      -55.1123824159       14.7402336648  W2        9152            0.0000000000
     27261      9087  TIP3      H2              8.6526794280      -56.0507524159       14.2445536648  W2        9152            0.0000000000
     27262      9088  TIP3      OH2             9.8180294280      -55.5340824159        5.1874936648  W2        9153            0.0000000000
     27263      9088  TIP3      H1             10.0378594280      -55.0625424159        4.3840336648  W2        9153            0.0000000000
     27264      9088  TIP3      H2             10.3764294280      -55.1398224159        5.8575536648  W2        9153            0.0000000000
     27265      9089  TIP3      OH2             7.4866394280      -43.4036024159        4.0502436648  W2        9154            0.0000000000
     27266      9089  TIP3      H1              6.6702494280      -42.9066324159        4.1026736648  W2        9154            0.0000000000
     27267      9089  TIP3      H2              8.0162694280      -42.9282524159        3.4101236648  W2        9154            0.0000000000
     27268      9090  TIP3      OH2             7.0180194280      -53.8062024159        6.0223336648  W2        9155            0.0000000000
     27269      9090  TIP3      H1              7.8302794280      -53.3018824159        6.0685036648  W2        9155            0.0000000000
     27270      9090  TIP3      H2              6.7733194280      -53.9512324159        6.9362936648  W2        9155            0.0000000000
     27271      9091  TIP3      OH2             7.5536594280      -52.8199324159       15.2069936648  W2        9156            0.0000000000
     27272      9091  TIP3      H1              7.6726894280      -52.2463924159       15.9640336648  W2        9156            0.0000000000
     27273      9091  TIP3      H2              8.2091194280      -53.5079924159       15.3217736648  W2        9156            0.0000000000
     27274      9092  TIP3      OH2             7.9016894280      -56.7249024159        6.9604436648  W2        9157            0.0000000000
     27275      9092  TIP3      H1              7.5550394280      -56.1078424159        7.6048736648  W2        9157            0.0000000000
     27276      9092  TIP3      H2              8.5603794280      -56.2243324159        6.4789936648  W2        9157            0.0000000000
     27277      9093  TIP3      OH2             4.8249494280      -42.3598824159        4.0319336648  W2        9158            0.0000000000
     27278      9093  TIP3      H1              4.9858194280      -41.5601324159        3.5311936648  W2        9158            0.0000000000
     27279      9093  TIP3      H2              4.6277294280      -42.0532824159        4.9169936648  W2        9158            0.0000000000
     27280      9094  TIP3      OH2             3.5593894280      -55.6619624159        3.6476936648  W2        9159            0.0000000000
     27281      9094  TIP3      H1              3.4758694280      -54.7736524159        3.9943336648  W2        9159            0.0000000000
     27282      9094  TIP3      H2              4.4494194280      -55.9272924159        3.8793736648  W2        9159            0.0000000000
     27283      9095  TIP3      OH2            13.7582394280      -54.9129024159       16.0419636648  W2        9160            0.0000000000
     27284      9095  TIP3      H1             12.8418194280      -54.6507324159       15.9543336648  W2        9160            0.0000000000
     27285      9095  TIP3      H2             14.0937394280      -54.9160024159       15.1454936648  W2        9160            0.0000000000
     27286      9096  TIP3      OH2            12.3603394280      -51.1628024159       10.1376936648  W2        9161            0.0000000000
     27287      9096  TIP3      H1             11.5627794280      -51.5777824159        9.8091936648  W2        9161            0.0000000000
     27288      9096  TIP3      H2             12.8054494280      -51.8534324159       10.6287436648  W2        9161            0.0000000000
     27289      9097  TIP3      OH2             1.8179194280      -45.2347424159        2.7081436648  W2        9162            0.0000000000
     27290      9097  TIP3      H1              2.4100694280      -44.5352624159        2.9843836648  W2        9162            0.0000000000
     27291      9097  TIP3      H2              2.2772194280      -45.6677924159        1.9886036648  W2        9162            0.0000000000
     27292      9098  TIP3      OH2             0.1338394280      -52.5704424159        1.8240836648  W2        9163            0.0000000000
     27293      9098  TIP3      H1              0.0890994280      -51.6311324159        2.0027836648  W2        9163            0.0000000000
     27294      9098  TIP3      H2             -0.7538405720      -52.8059524159        1.5542936648  W2        9163            0.0000000000
     27295      9099  TIP3      OH2            13.4467994280      -41.9065524159       11.7600436648  W2        9164            0.0000000000
     27296      9099  TIP3      H1             13.2912294280      -41.2281124159       11.1029736648  W2        9164            0.0000000000
     27297      9099  TIP3      H2             14.3794394280      -41.8346224159       11.9631036648  W2        9164            0.0000000000
     27298      9100  TIP3      OH2             0.9420394280      -57.7887824159       10.4971836648  W2        9165            0.0000000000
     27299      9100  TIP3      H1              0.7130194280      -57.7295324159        9.5696836648  W2        9165            0.0000000000
     27300      9100  TIP3      H2              0.4993794280      -58.5802324159       10.8035936648  W2        9165            0.0000000000
     27301      9101  TIP3      OH2            -0.1276305720      -43.8480724159        6.6577636648  W2        9166            0.0000000000
     27302      9101  TIP3      H1             -0.9597705720      -43.3758024159        6.6849036648  W2        9166            0.0000000000
     27303      9101  TIP3      H2              0.4181994280      -43.3383124159        6.0590736648  W2        9166            0.0000000000
     27304      9102  TIP3      OH2             7.8500394280      -42.8082024159        0.9831636648  W2        9169            0.0000000000
     27305      9102  TIP3      H1              7.2061394280      -43.4393424159        1.3045336648  W2        9169            0.0000000000
     27306      9102  TIP3      H2              8.6118694280      -43.3394024159        0.7515136648  W2        9169            0.0000000000
     27307      9103  TIP3      OH2            12.4543294280      -42.9912124159        1.2169636648  W2        9171            0.0000000000
     27308      9103  TIP3      H1             12.7373694280      -43.7856924159        1.6696536648  W2        9171            0.0000000000
     27309      9103  TIP3      H2             13.1941194280      -42.7581124159        0.6560736648  W2        9171            0.0000000000
     27310      9104  TIP3      OH2             3.4090594280      -47.0817224159        1.0744536648  W2        9173            0.0000000000
     27311      9104  TIP3      H1              3.4734694280      -47.8757624159        1.6050936648  W2        9173            0.0000000000
     27312      9104  TIP3      H2              4.0619794280      -47.2004424159        0.3846536648  W2        9173            0.0000000000
     27313      9105  TIP3      OH2             8.7613994280      -46.0345524159        0.8102536648  W2        9175            0.0000000000
     27314      9105  TIP3      H1              8.4928094280      -45.8543424159        1.7111436648  W2        9175            0.0000000000
     27315      9105  TIP3      H2              8.5549594280      -46.9599324159        0.6788336648  W2        9175            0.0000000000
     27316      9106  TIP3      OH2            11.4578194280      -47.5397524159       15.7578636648  W2        9176            0.0000000000
     27317      9106  TIP3      H1             12.2032994280      -46.9513824159       15.6382636648  W2        9176            0.0000000000
     27318      9106  TIP3      H2             10.7004994280      -46.9577824159       15.8211736648  W2        9176            0.0000000000
     27319      9107  TIP3      OH2             4.5584394280      -49.1091024159        3.3802536648  W2        9178            0.0000000000
     27320      9107  TIP3      H1              4.0986394280      -49.5932724159        4.0661036648  W2        9178            0.0000000000
     27321      9107  TIP3      H2              4.8133094280      -49.7775624159        2.7443036648  W2        9178            0.0000000000
     27322      9108  TIP3      OH2             3.8473694280      -51.2163924159       15.7362136648  W2        9179            0.0000000000
     27323      9108  TIP3      H1              3.2289794280      -50.5417324159       16.0166836648  W2        9179            0.0000000000
     27324      9108  TIP3      H2              4.1914894280      -50.8950024159       14.9028336648  W2        9179            0.0000000000
     27325      9109  TIP3      OH2             5.6294794280      -50.8659224159        1.6425736648  W2        9180            0.0000000000
     27326      9109  TIP3      H1              5.4489794280      -51.0208024159        0.7154036648  W2        9180            0.0000000000
     27327      9109  TIP3      H2              6.5795294280      -50.7580524159        1.6873636648  W2        9180            0.0000000000
     27328      9110  TIP3      OH2            15.0193094280      -48.5115024159        1.0883836648  W2        9182            0.0000000000
     27329      9110  TIP3      H1             14.7457894280      -48.9359524159        0.2752136648  W2        9182            0.0000000000
     27330      9110  TIP3      H2             15.0587194280      -47.5800524159        0.8714236648  W2        9182            0.0000000000
     27331      9111  TIP3      OH2             4.1867394280      -53.8613124159       16.8185236648  W2        9183            0.0000000000
     27332      9111  TIP3      H1              4.3368294280      -54.5901824159       16.2164936648  W2        9183            0.0000000000
     27333      9111  TIP3      H2              4.1889794280      -53.0841424159       16.2597436648  W2        9183            0.0000000000
     27334      9112  TIP3      OH2             4.5993094280      -55.4917324159       14.3112636648  W2        9184            0.0000000000
     27335      9112  TIP3      H1              5.1350594280      -55.0400624159       13.6591936648  W2        9184            0.0000000000
     27336      9112  TIP3      H2              3.7472694280      -55.5997524159       13.8886736648  W2        9184            0.0000000000
     27337      9113  TIP3      OH2             6.1811494280      -50.0521124159       14.5507836648  W2        9185            0.0000000000
     27338      9113  TIP3      H1              6.9316294280      -50.2083624159       13.9775636648  W2        9185            0.0000000000
     27339      9113  TIP3      H2              5.8419794280      -49.2004524159       14.2753336648  W2        9185            0.0000000000
     27340      9114  TIP3      OH2            11.9134894280      -49.4484124159       17.6565836648  W2        9187            0.0000000000
     27341      9114  TIP3      H1             11.6319894280      -48.7389524159       17.0789636648  W2        9187            0.0000000000
     27342      9114  TIP3      H2             12.8559194280      -49.5211124159       17.5057036648  W2        9187            0.0000000000
     27343      9115  TIP3      OH2             5.4048594280      -58.0351624159       14.7426236648  W2        9189            0.0000000000
     27344      9115  TIP3      H1              5.3068194280      -57.0888424159       14.6372436648  W2        9189            0.0000000000
     27345      9115  TIP3      H2              4.6624794280      -58.4077824159       14.2669736648  W2        9189            0.0000000000
     27346      9116  TIP3      OH2             9.3845694280      -54.5862724159       17.3818136648  W2        9191            0.0000000000
     27347      9116  TIP3      H1              8.4371094280      -54.5543024159       17.5141436648  W2        9191            0.0000000000
     27348      9116  TIP3      H2              9.6972394280      -55.2115624159       18.0356336648  W2        9191            0.0000000000
     27349      9117  TIP3      OH2             5.6266694280      -58.7414224159       17.4139036648  W2        9194            0.0000000000
     27350      9117  TIP3      H1              6.3385094280      -59.3812024159       17.3998136648  W2        9194            0.0000000000
     27351      9117  TIP3      H2              5.5257094280      -58.4745924159       16.5002136648  W2        9194            0.0000000000
     27352      9118  TIP3      OH2             5.5266494280      -40.1755524159        2.6439336648  W2        9196            0.0000000000
     27353      9118  TIP3      H1              6.4597194280      -40.0176824159        2.7877736648  W2        9196            0.0000000000
     27354      9118  TIP3      H2              5.2625294280      -39.5002524159        2.0190836648  W2        9196            0.0000000000
     27355      9119  TIP3      OH2            -0.9048605720      -45.5391724159        2.1267436648  W2        9197            0.0000000000
     27356      9119  TIP3      H1              0.0090594280      -45.4602824159        2.4001336648  W2        9197            0.0000000000
     27357      9119  TIP3      H2             -0.8975505720      -46.2262124159        1.4603036648  W2        9197            0.0000000000
     27358      9120  TIP3      OH2            -2.2558005720      -40.1463224159        7.2041336648  W2        9198            0.0000000000
     27359      9120  TIP3      H1             -2.9030905720      -40.6081524159        6.6712536648  W2        9198            0.0000000000
     27360      9120  TIP3      H2             -1.9013405720      -40.8179924159        7.7867536648  W2        9198            0.0000000000
     27361      9121  TIP3      OH2            -1.3858805720      -42.0656224159        9.0087536648  W2        9199            0.0000000000
     27362      9121  TIP3      H1             -1.7202005720      -42.9458924159        9.1807736648  W2        9199            0.0000000000
     27363      9121  TIP3      H2             -1.1636405720      -41.7201224159        9.8733136648  W2        9199            0.0000000000
     27364      9122  TIP3      OH2            16.1625994280      -41.2559824159       11.9892336648  W2        9200            0.0000000000
     27365      9122  TIP3      H1             16.1412694280      -41.0711424159       12.9281736648  W2        9200            0.0000000000
     27366      9122  TIP3      H2             16.8532194280      -40.6875824159       11.6483736648  W2        9200            0.0000000000
     27367      9123  TIP3      OH2            15.7258894280      -41.6888724159       14.9111436648  W2        9201            0.0000000000
     27368      9123  TIP3      H1             15.2387594280      -42.4244624159       14.5398836648  W2        9201            0.0000000000
     27369      9123  TIP3      H2             16.2751594280      -42.0824824159       15.5890836648  W2        9201            0.0000000000
     27370      9124  TIP3      OH2            15.4775894280      -47.6426924159        5.0634236648  W2        9203            0.0000000000
     27371      9124  TIP3      H1             16.3277294280      -47.2216024159        5.1905836648  W2        9203            0.0000000000
     27372      9124  TIP3      H2             15.4830994280      -48.3826824159        5.6705636648  W2        9203            0.0000000000
     27373      9125  TIP3      OH2            15.8721494280      -49.5889524159        6.8869936648  W2        9204            0.0000000000
     27374      9125  TIP3      H1             15.1456094280      -50.0686924159        7.2847536648  W2        9204            0.0000000000
     27375      9125  TIP3      H2             16.4534794280      -49.3834824159        7.6191536648  W2        9204            0.0000000000
     27376      9126  TIP3      OH2            15.6312694280      -46.8042024159       11.8347536648  W2        9205            0.0000000000
     27377      9126  TIP3      H1             16.4646894280      -47.1822024159       11.5541136648  W2        9205            0.0000000000
     27378      9126  TIP3      H2             15.7432994280      -45.8610824159       11.7156636648  W2        9205            0.0000000000
     27379      9127  TIP3      OH2            14.1174994280      -43.9264524159       14.1415936648  W2        9206            0.0000000000
     27380      9127  TIP3      H1             13.4700294280      -43.6013024159       14.7671136648  W2        9206            0.0000000000
     27381      9127  TIP3      H2             13.5998994280      -44.3666824159       13.4674236648  W2        9206            0.0000000000
     27382      9128  TIP3      OH2            16.1404594280      -49.6881024159        3.2781236648  W2        9207            0.0000000000
     27383      9128  TIP3      H1             15.6185694280      -49.3316924159        2.5592136648  W2        9207            0.0000000000
     27384      9128  TIP3      H2             16.1073794280      -49.0133224159        3.9562136648  W2        9207            0.0000000000
     27385      9129  TIP3      OH2            14.4893594280      -52.4485424159        1.8288336648  W2        9208            0.0000000000
     27386      9129  TIP3      H1             14.5857994280      -51.7818424159        1.1488036648  W2        9208            0.0000000000
     27387      9129  TIP3      H2             14.3493194280      -53.2639124159        1.3473836648  W2        9208            0.0000000000
     27388      9130  TIP3      OH2            13.6588294280      -51.0683024159        7.4498636648  W2        9209            0.0000000000
     27389      9130  TIP3      H1             13.5087094280      -52.0134424159        7.4296436648  W2        9209            0.0000000000
     27390      9130  TIP3      H2             13.3052794280      -50.7871624159        8.2937736648  W2        9209            0.0000000000
     27391      9131  TIP3      OH2            -1.3059305720      -48.9900824159       11.4602436648  W2        9210            0.0000000000
     27392      9131  TIP3      H1             -1.1216405720      -49.0719124159       10.5245336648  W2        9210            0.0000000000
     27393      9131  TIP3      H2             -0.4566405720      -49.1143824159       11.8838836648  W2        9210            0.0000000000
     27394      9132  TIP3      OH2            14.5151194280      -49.0979724159       17.0886936648  W2        9211            0.0000000000
     27395      9132  TIP3      H1             15.0978494280      -49.8327424159       17.2804136648  W2        9211            0.0000000000
     27396      9132  TIP3      H2             15.0790494280      -48.3259424159       17.1352736648  W2        9211            0.0000000000
     27397      9133  TIP3      OH2            16.0118294280      -51.1953924159       17.7732336648  W2        9212            0.0000000000
     27398      9133  TIP3      H1             15.1484994280      -51.5741824159       17.6077036648  W2        9212            0.0000000000
     27399      9133  TIP3      H2             16.6161994280      -51.9339124159       17.6988136648  W2        9212            0.0000000000
     27400      9134  TIP3      OH2            13.7367394280      -55.0405624159        0.9463836648  W2        9213            0.0000000000
     27401      9134  TIP3      H1             14.3473194280      -55.4118824159        1.5832036648  W2        9213            0.0000000000
     27402      9134  TIP3      H2             12.8998894280      -55.4618724159        1.1423836648  W2        9213            0.0000000000
     27403      9135  TIP3      OH2            13.3693094280      -53.4857224159        5.9123736648  W2        9214            0.0000000000
     27404      9135  TIP3      H1             13.6490194280      -54.3926824159        6.0365436648  W2        9214            0.0000000000
     27405      9135  TIP3      H2             14.1284794280      -53.0515724159        5.5232936648  W2        9214            0.0000000000
     27406      9136  TIP3      OH2            13.9811394280      -52.9039824159       11.3482636648  W2        9215            0.0000000000
     27407      9136  TIP3      H1             14.9139394280      -52.6919924159       11.3138636648  W2        9215            0.0000000000
     27408      9136  TIP3      H2             13.7458894280      -52.8027724159       12.2705636648  W2        9215            0.0000000000
     27409      9137  TIP3      OH2            14.0103294280      -52.1674524159       14.1242036648  W2        9216            0.0000000000
     27410      9137  TIP3      H1             13.1674594280      -51.8994124159       14.4901836648  W2        9216            0.0000000000
     27411      9137  TIP3      H2             14.4527594280      -51.3452624159       13.9133136648  W2        9216            0.0000000000
     27412      9138  TIP3      OH2            -1.7084505720      -53.7195824159       17.6011236648  W2        9217            0.0000000000
     27413      9138  TIP3      H1             -0.7889605720      -53.8417524159       17.8374336648  W2        9217            0.0000000000
     27414      9138  TIP3      H2             -2.1580005720      -54.4696124159       17.9904736648  W2        9217            0.0000000000
     27415      9139  TIP3      OH2            13.9827894280      -56.2227924159        5.9605736648  W2        9219            0.0000000000
     27416      9139  TIP3      H1             14.1652894280      -56.6716424159        6.7860736648  W2        9219            0.0000000000
     27417      9139  TIP3      H2             13.3830794280      -56.8073524159        5.4970336648  W2        9219            0.0000000000
     27418      9140  TIP3      OH2            -0.4872005720      -55.4074224159       10.4924136648  W2        9220            0.0000000000
     27419      9140  TIP3      H1             -0.0420405720      -56.1991724159       10.7943836648  W2        9220            0.0000000000
     27420      9140  TIP3      H2             -0.0209005720      -54.6909024159       10.9229736648  W2        9220            0.0000000000
     27421      9141  TIP3      OH2            -2.1831705720      -52.4081224159       11.5614336648  W2        9221            0.0000000000
     27422      9141  TIP3      H1             -1.6911905720      -52.6290724159       10.7706336648  W2        9221            0.0000000000
     27423      9141  TIP3      H2             -1.8210805720      -51.5677824159       11.8423836648  W2        9221            0.0000000000
     27424      9142  TIP3      OH2            15.8494094280      -56.1549824159        2.4886036648  W2        9223            0.0000000000
     27425      9142  TIP3      H1             16.2616694280      -56.8764124159        2.0134036648  W2        9223            0.0000000000
     27426      9142  TIP3      H2             16.5310594280      -55.4855224159        2.5470336648  W2        9223            0.0000000000
     27427      9143  TIP3      OH2            -1.8695205720      -56.1502124159        5.6156736648  W2        9224            0.0000000000
     27428      9143  TIP3      H1             -2.7946805720      -55.9415524159        5.4862236648  W2        9224            0.0000000000
     27429      9143  TIP3      H2             -1.4155305720      -55.6661324159        4.9259036648  W2        9224            0.0000000000
     27430      9144  TIP3      OH2            12.9011994280      -41.1660424159        7.5614136648  W2        9225            0.0000000000
     27431      9144  TIP3      H1             13.5534894280      -41.5138324159        6.9533236648  W2        9225            0.0000000000
     27432      9144  TIP3      H2             13.4115794280      -40.6777224159        8.2073836648  W2        9225            0.0000000000
     27433      9145  TIP3      OH2            -1.9059805720      -57.4123124159       13.9599236648  W2        9226            0.0000000000
     27434      9145  TIP3      H1             -2.5709305720      -57.6582824159       14.6030136648  W2        9226            0.0000000000
     27435      9145  TIP3      H2             -2.3488505720      -56.7902724159       13.3827236648  W2        9226            0.0000000000
     27436      9146  TIP3      OH2             3.2402394280      -43.2627824159       14.3629036648  W2        9228            0.0000000000
     27437      9146  TIP3      H1              2.8153494280      -42.4529324159       14.0803636648  W2        9228            0.0000000000
     27438      9146  TIP3      H2              4.1445194280      -43.1773724159       14.0608836648  W2        9228            0.0000000000
     27439      9147  TIP3      OH2             7.5513794280      -41.8637824159       17.3222736648  W2        9229            0.0000000000
     27440      9147  TIP3      H1              7.7361294280      -42.1971724159       18.2003036648  W2        9229            0.0000000000
     27441      9147  TIP3      H2              8.3978294280      -41.5539224159       17.0001936648  W2        9229            0.0000000000
     27442      9148  TIP3      OH2             9.8964194280      -40.5778924159       16.5664136648  W2        9230            0.0000000000
     27443      9148  TIP3      H1             10.5733094280      -41.2106624159       16.3263336648  W2        9230            0.0000000000
     27444      9148  TIP3      H2             10.2182994280      -40.1768424159       17.3737436648  W2        9230            0.0000000000
     27445      9149  TIP3      OH2            14.8137994280      -57.9883424159       15.6459136648  W2        9231            0.0000000000
     27446      9149  TIP3      H1             14.0011494280      -57.6633124159       15.2583836648  W2        9231            0.0000000000
     27447      9149  TIP3      H2             15.0466494280      -58.7484924159       15.1128236648  W2        9231            0.0000000000
     27448      9150  TIP3      OH2             0.6419094280      -40.0063924159       14.4104336648  W2        9232            0.0000000000
     27449      9150  TIP3      H1             -0.0784505720      -39.5662924159       13.9592036648  W2        9232            0.0000000000
     27450      9150  TIP3      H2              0.2763094280      -40.2569224159       15.2588336648  W2        9232            0.0000000000
     27451      9151  TIP3      OH2             3.1091694280      -40.4060024159       13.4401536648  W2        9233            0.0000000000
     27452      9151  TIP3      H1              2.2443894280      -40.3341524159       13.8441636648  W2        9233            0.0000000000
     27453      9151  TIP3      H2              3.0540694280      -39.8592724159       12.6564036648  W2        9233            0.0000000000
     27454      9152  TIP3      OH2             7.8197294280      -40.5181124159       12.6157536648  W2        9234            0.0000000000
     27455      9152  TIP3      H1              7.3631294280      -39.9891424159       11.9615936648  W2        9234            0.0000000000
     27456      9152  TIP3      H2              7.9825294280      -39.9149724159       13.3409836648  W2        9234            0.0000000000
     27457      9153  TIP3      OH2            10.1473594280      -41.6401524159       13.5607836648  W2        9235            0.0000000000
     27458      9153  TIP3      H1              9.2427294280      -41.4751324159       13.2949936648  W2        9235            0.0000000000
     27459      9153  TIP3      H2             10.5762194280      -40.7869324159       13.4951236648  W2        9235            0.0000000000
     27460      9154  TIP3      OH2            12.7515494280      -40.0702424159       13.8555636648  W2        9236            0.0000000000
     27461      9154  TIP3      H1             12.5697494280      -39.1543524159       13.6450536648  W2        9236            0.0000000000
     27462      9154  TIP3      H2             12.9283294280      -40.4805324159       13.0090236648  W2        9236            0.0000000000
     27463      9155  TIP3      OH2             0.0567194280      -41.3831424159       11.3206136648  W2        9237            0.0000000000
     27464      9155  TIP3      H1              0.0383194280      -41.8086324159       12.1778436648  W2        9237            0.0000000000
     27465      9155  TIP3      H2              0.8615094280      -41.7016424159       10.9118336648  W2        9237            0.0000000000
     27466      9156  TIP3      OH2             2.1980294280      -42.6732724159        9.9756036648  W2        9238            0.0000000000
     27467      9156  TIP3      H1              1.9790994280      -43.5895324159       10.1452036648  W2        9238            0.0000000000
     27468      9156  TIP3      H2              3.0222494280      -42.5332324159       10.4417436648  W2        9238            0.0000000000
     27469      9157  TIP3      OH2             4.7352794280      -42.2033424159       10.8244036648  W2        9239            0.0000000000
     27470      9157  TIP3      H1              4.9478494280      -43.0914424159       10.5374936648  W2        9239            0.0000000000
     27471      9157  TIP3      H2              4.7997894280      -42.2375724159       11.7788036648  W2        9239            0.0000000000
     27472      9158  TIP3      OH2             8.2436494280      -56.5392824159        9.9687336648  W2        9240            0.0000000000
     27473      9158  TIP3      H1              7.5693294280      -57.1687224159       10.2243136648  W2        9240            0.0000000000
     27474      9158  TIP3      H2              8.8075694280      -57.0233924159        9.3655236648  W2        9240            0.0000000000
     27475      9159  TIP3      OH2            13.3863694280      -58.4318824159       10.0814436648  W2        9241            0.0000000000
     27476      9159  TIP3      H1             13.9901294280      -57.8843424159        9.5795436648  W2        9241            0.0000000000
     27477      9159  TIP3      H2             12.5165694280      -58.1128424159        9.8408536648  W2        9241            0.0000000000
     27478      9160  TIP3      OH2            15.1134094280      -57.2930124159        8.4145336648  W2        9242            0.0000000000
     27479      9160  TIP3      H1             15.7251594280      -57.8074424159        7.8878936648  W2        9242            0.0000000000
     27480      9160  TIP3      H2             15.4957494280      -56.4158024159        8.4379736648  W2        9242            0.0000000000
     27481      9161  TIP3      OH2             0.5703994280      -57.9052524159        7.7907236648  W2        9243            0.0000000000
     27482      9161  TIP3      H1             -0.2066205720      -58.1397624159        7.2833136648  W2        9243            0.0000000000
     27483      9161  TIP3      H2              1.1007594280      -58.7020424159        7.7995236648  W2        9243            0.0000000000
     27484      9162  TIP3      OH2            -0.5932605720      -58.1074424159        3.5943336648  W2        9244            0.0000000000
     27485      9162  TIP3      H1             -0.1541905720      -57.4963924159        3.0026836648  W2        9244            0.0000000000
     27486      9162  TIP3      H2             -1.2270205720      -57.5690324159        4.0683336648  W2        9244            0.0000000000
     27487      9163  TIP3      OH2             5.1496594280      -57.9785424159        7.6040336648  W2        9245            0.0000000000
     27488      9163  TIP3      H1              6.0239994280      -57.5901124159        7.5744636648  W2        9245            0.0000000000
     27489      9163  TIP3      H2              5.0137394280      -58.1937624159        8.5267536648  W2        9245            0.0000000000
     27490      9164  TIP3      OH2            10.7064994280      -57.9485624159        9.2532036648  W2        9246            0.0000000000
     27491      9164  TIP3      H1             10.7826594280      -57.8534024159        8.3038036648  W2        9246            0.0000000000
     27492      9164  TIP3      H2             10.4314194280      -58.8562724159        9.3821136648  W2        9246            0.0000000000
     27493      9165  TIP3      OH2            12.0597594280      -57.9227824159        4.9457036648  W2        9247            0.0000000000
     27494      9165  TIP3      H1             11.3568694280      -57.3078624159        4.7358436648  W2        9247            0.0000000000
     27495      9165  TIP3      H2             11.6148994280      -58.7601124159        5.0767936648  W2        9247            0.0000000000
     27496      9166  TIP3      OH2            -0.6923105720      -42.1592224159        4.4918436648  W2        9248            0.0000000000
     27497      9166  TIP3      H1             -1.3773205720      -42.1973324159        3.8243536648  W2        9248            0.0000000000
     27498      9166  TIP3      H2             -0.6885905720      -41.2464624159        4.7800536648  W2        9248            0.0000000000
     27499      9167  TIP3      OH2             1.2676494280      -56.1912924159        2.0367436648  W2        9249            0.0000000000
     27500      9167  TIP3      H1              1.7589894280      -56.8210524159        1.5092936648  W2        9249            0.0000000000
     27501      9167  TIP3      H2              1.8912794280      -55.8953524159        2.6998636648  W2        9249            0.0000000000
     27502      9168  TIP3      OH2             6.2936594280      -55.8981424159        4.4937936648  W2        9250            0.0000000000
     27503      9168  TIP3      H1              6.4717894280      -56.5448224159        5.1766536648  W2        9250            0.0000000000
     27504      9168  TIP3      H2              6.2402794280      -55.0643724159        4.9609036648  W2        9250            0.0000000000
     27505      9169  TIP3      OH2             8.1720394280      -40.9497324159        2.8894636648  W2        9251            0.0000000000
     27506      9169  TIP3      H1              9.0380594280      -40.5829924159        2.7112836648  W2        9251            0.0000000000
     27507      9169  TIP3      H2              7.9253194280      -41.3889324159        2.0755436648  W2        9251            0.0000000000
     27508      9170  TIP3      OH2            14.8809994280      -41.3867024159        5.5685736648  W2        9252            0.0000000000
     27509      9170  TIP3      H1             14.6867094280      -42.1344924159        5.0035336648  W2        9252            0.0000000000
     27510      9170  TIP3      H2             14.8420094280      -40.6286924159        4.9853636648  W2        9252            0.0000000000
     27511      9171  TIP3      OH2             0.5281994280      -57.3910624159       17.3083436648  W2        9253            0.0000000000
     27512      9171  TIP3      H1              0.1620194280      -58.1568024159       17.7508136648  W2        9253            0.0000000000
     27513      9171  TIP3      H2              1.4410494280      -57.3620424159       17.5948536648  W2        9253            0.0000000000
     27514      9172  TIP3      OH2             1.1258094280      -41.2391424159        1.5170536648  W2        9255            0.0000000000
     27515      9172  TIP3      H1              0.8582694280      -40.9528524159        2.3903636648  W2        9255            0.0000000000
     27516      9172  TIP3      H2              1.8970694280      -41.7852224159        1.6693036648  W2        9255            0.0000000000
     27517      9173  TIP3      OH2            14.0986194280      -42.6354624159       17.7187536648  W2        9257            0.0000000000
     27518      9173  TIP3      H1             13.3168094280      -42.8216624159       17.1988136648  W2        9257            0.0000000000
     27519      9173  TIP3      H2             14.0266094280      -41.7060324159       17.9360036648  W2        9257            0.0000000000
     27520      9174  TIP3      OH2            28.5046594280      -48.7490224159        7.7494736648  W2        9258            0.0000000000
     27521      9174  TIP3      H1             28.5937694280      -47.8052024159        7.6171836648  W2        9258            0.0000000000
     27522      9174  TIP3      H2             27.8664194280      -49.0243824159        7.0914136648  W2        9258            0.0000000000
     27523      9175  TIP3      OH2            27.4377894280      -49.4939524159       11.1682936648  W2        9259            0.0000000000
     27524      9175  TIP3      H1             27.3995394280      -50.1403224159       11.8732536648  W2        9259            0.0000000000
     27525      9175  TIP3      H2             27.1154394280      -49.9605124159       10.3971636648  W2        9259            0.0000000000
     27526      9176  TIP3      OH2            19.8062894280      -49.8797424159       12.7612836648  W2        9260            0.0000000000
     27527      9176  TIP3      H1             19.8474994280      -50.5054124159       13.4845236648  W2        9260            0.0000000000
     27528      9176  TIP3      H2             20.5090594280      -49.2558824159       12.9433236648  W2        9260            0.0000000000
     27529      9177  TIP3      OH2            31.1438094280      -46.5549124159        9.4698036648  W2        9261            0.0000000000
     27530      9177  TIP3      H1             30.7030794280      -47.2753124159        9.9203636648  W2        9261            0.0000000000
     27531      9177  TIP3      H2             31.1307794280      -45.8341924159       10.0995736648  W2        9261            0.0000000000
     27532      9178  TIP3      OH2            20.7295994280      -45.4298524159       11.2961936648  W2        9262            0.0000000000
     27533      9178  TIP3      H1             20.3601194280      -46.2318024159       10.9266236648  W2        9262            0.0000000000
     27534      9178  TIP3      H2             21.6707094280      -45.5983624159       11.3425336648  W2        9262            0.0000000000
     27535      9179  TIP3      OH2            17.3396494280      -51.7695924159        6.6890736648  W2        9263            0.0000000000
     27536      9179  TIP3      H1             16.8919894280      -50.9237224159        6.6707236648  W2        9263            0.0000000000
     27537      9179  TIP3      H2             16.7787694280      -52.3491724159        6.1735836648  W2        9263            0.0000000000
     27538      9180  TIP3      OH2            18.0502594280      -49.6076324159        8.8148736648  W2        9264            0.0000000000
     27539      9180  TIP3      H1             18.2636094280      -50.3774724159        9.3421736648  W2        9264            0.0000000000
     27540      9180  TIP3      H2             18.7880194280      -49.5179624159        8.2116336648  W2        9264            0.0000000000
     27541      9181  TIP3      OH2            28.2553594280      -41.4507424159        9.6818436648  W2        9265            0.0000000000
     27542      9181  TIP3      H1             28.8749994280      -42.1272724159        9.4087636648  W2        9265            0.0000000000
     27543      9181  TIP3      H2             28.0470994280      -41.6686624159       10.5903336648  W2        9265            0.0000000000
     27544      9182  TIP3      OH2            25.8272294280      -47.0618124159       11.5743936648  W2        9266            0.0000000000
     27545      9182  TIP3      H1             26.1310194280      -47.7476724159       10.9798036648  W2        9266            0.0000000000
     27546      9182  TIP3      H2             26.5486294280      -46.9429424159       12.1921936648  W2        9266            0.0000000000
     27547      9183  TIP3      OH2            34.4902094280      -55.4602824159       12.4350136648  W2        9267            0.0000000000
     27548      9183  TIP3      H1             34.5394294280      -54.8501624159       13.1709236648  W2        9267            0.0000000000
     27549      9183  TIP3      H2             34.9157194280      -54.9991924159       11.7121236648  W2        9267            0.0000000000
     27550      9184  TIP3      OH2            28.9679294280      -52.6675724159       11.9018736648  W2        9268            0.0000000000
     27551      9184  TIP3      H1             29.1105194280      -53.6138724159       11.9220336648  W2        9268            0.0000000000
     27552      9184  TIP3      H2             28.8618294280      -52.4605924159       10.9733636648  W2        9268            0.0000000000
     27553      9185  TIP3      OH2            22.1227594280      -54.5659324159        9.1743536648  W2        9269            0.0000000000
     27554      9185  TIP3      H1             22.1658694280      -53.7060824159        8.7559836648  W2        9269            0.0000000000
     27555      9185  TIP3      H2             21.6651694280      -55.1184624159        8.5406736648  W2        9269            0.0000000000
     27556      9186  TIP3      OH2            29.8450294280      -54.4353724159        7.5751836648  W2        9270            0.0000000000
     27557      9186  TIP3      H1             30.4914594280      -54.7640524159        8.1999436648  W2        9270            0.0000000000
     27558      9186  TIP3      H2             30.3549694280      -53.9174724159        6.9523236648  W2        9270            0.0000000000
     27559      9187  TIP3      OH2            18.7429094280      -52.1693524159        9.9364936648  W2        9271            0.0000000000
     27560      9187  TIP3      H1             19.3965694280      -52.7191824159       10.3685036648  W2        9271            0.0000000000
     27561      9187  TIP3      H2             18.7668394280      -52.4434524159        9.0196936648  W2        9271            0.0000000000
     27562      9188  TIP3      OH2            23.8993594280      -50.6192224159        9.1516436648  W2        9272            0.0000000000
     27563      9188  TIP3      H1             24.5154594280      -51.1456824159        9.6610436648  W2        9272            0.0000000000
     27564      9188  TIP3      H2             23.3132394280      -51.2593524159        8.7480036648  W2        9272            0.0000000000
     27565      9189  TIP3      OH2            34.8816694280      -53.9823624159       14.6709936648  W2        9273            0.0000000000
     27566      9189  TIP3      H1             34.1931294280      -53.3242924159       14.5756536648  W2        9273            0.0000000000
     27567      9189  TIP3      H2             34.8971294280      -54.1795724159       15.6075336648  W2        9273            0.0000000000
     27568      9190  TIP3      OH2            20.9329494280      -55.6480924159       13.2484336648  W2        9274            0.0000000000
     27569      9190  TIP3      H1             20.7141194280      -55.1180324159       12.4820336648  W2        9274            0.0000000000
     27570      9190  TIP3      H2             20.2650394280      -55.4215424159       13.8955736648  W2        9274            0.0000000000
     27571      9191  TIP3      OH2            28.3019294280      -46.1479824159        6.7923436648  W2        9275            0.0000000000
     27572      9191  TIP3      H1             28.0064394280      -46.4707524159        5.9410336648  W2        9275            0.0000000000
     27573      9191  TIP3      H2             27.9777094280      -45.2483124159        6.8336036648  W2        9275            0.0000000000
     27574      9192  TIP3      OH2            23.5020894280      -47.9725224159       13.5358036648  W2        9276            0.0000000000
     27575      9192  TIP3      H1             22.7619994280      -47.3743724159       13.6393236648  W2        9276            0.0000000000
     27576      9192  TIP3      H2             24.2160394280      -47.4185624159       13.2201636648  W2        9276            0.0000000000
     27577      9193  TIP3      OH2            31.6088694280      -55.1444424159        9.5557736648  W2        9277            0.0000000000
     27578      9193  TIP3      H1             31.3936694280      -55.9101024159       10.0883736648  W2        9277            0.0000000000
     27579      9193  TIP3      H2             32.2646094280      -54.6719824159       10.0686236648  W2        9277            0.0000000000
     27580      9194  TIP3      OH2            20.5266794280      -53.7559124159       11.2006536648  W2        9278            0.0000000000
     27581      9194  TIP3      H1             21.1403094280      -53.1231524159       11.5738936648  W2        9278            0.0000000000
     27582      9194  TIP3      H2             21.0387494280      -54.2284124159       10.5443436648  W2        9278            0.0000000000
     27583      9195  TIP3      OH2            21.9095194280      -46.0082224159       14.3229536648  W2        9279            0.0000000000
     27584      9195  TIP3      H1             21.9042794280      -45.1288724159       13.9448836648  W2        9279            0.0000000000
     27585      9195  TIP3      H2             21.0559294280      -46.0918124159       14.7479436648  W2        9279            0.0000000000
     27586      9196  TIP3      OH2            18.0306094280      -46.3374324159        5.1048836648  W2        9280            0.0000000000
     27587      9196  TIP3      H1             17.7586994280      -46.1083324159        4.2161736648  W2        9280            0.0000000000
     27588      9196  TIP3      H2             18.0761794280      -45.4995524159        5.5654136648  W2        9280            0.0000000000
     27589      9197  TIP3      OH2            31.6555794280      -44.7158424159       11.8177336648  W2        9281            0.0000000000
     27590      9197  TIP3      H1             30.7139494280      -44.6574524159       11.9794236648  W2        9281            0.0000000000
     27591      9197  TIP3      H2             31.9321894280      -43.8097924159       11.6807036648  W2        9281            0.0000000000
     27592      9198  TIP3      OH2            31.9562794280      -56.4293124159       13.2351236648  W2        9282            0.0000000000
     27593      9198  TIP3      H1             31.2201994280      -55.8186024159       13.1972536648  W2        9282            0.0000000000
     27594      9198  TIP3      H2             32.6396794280      -56.0144124159       12.7087636648  W2        9282            0.0000000000
     27595      9199  TIP3      OH2            24.9594194280      -58.3425824159       10.7009236648  W2        9283            0.0000000000
     27596      9199  TIP3      H1             24.8418394280      -59.2909824159       10.6467536648  W2        9283            0.0000000000
     27597      9199  TIP3      H2             24.1044294280      -58.0099724159       10.9740336648  W2        9283            0.0000000000
     27598      9200  TIP3      OH2            29.9076994280      -42.9344924159        8.4428936648  W2        9284            0.0000000000
     27599      9200  TIP3      H1             30.3329294280      -43.6417024159        7.9578536648  W2        9284            0.0000000000
     27600      9200  TIP3      H2             30.2246994280      -42.1332224159        8.0261136648  W2        9284            0.0000000000
     27601      9201  TIP3      OH2            31.0673494280      -45.0336424159        6.9515536648  W2        9285            0.0000000000
     27602      9201  TIP3      H1             30.8098294280      -45.7236324159        6.3401436648  W2        9285            0.0000000000
     27603      9201  TIP3      H2             31.1384294280      -45.4765224159        7.7971436648  W2        9285            0.0000000000
     27604      9202  TIP3      OH2            32.7533694280      -46.4669724159       15.4289036648  W2        9286            0.0000000000
     27605      9202  TIP3      H1             32.8929994280      -47.0587224159       14.6896036648  W2        9286            0.0000000000
     27606      9202  TIP3      H2             32.9206494280      -45.5943824159       15.0727836648  W2        9286            0.0000000000
     27607      9203  TIP3      OH2            27.2259094280      -49.5050224159        5.2015036648  W2        9287            0.0000000000
     27608      9203  TIP3      H1             26.5144594280      -48.9700524159        4.8495536648  W2        9287            0.0000000000
     27609      9203  TIP3      H2             27.9168694280      -49.4498124159        4.5413936648  W2        9287            0.0000000000
     27610      9204  TIP3      OH2            27.2798294280      -51.0475924159        2.2400036648  W2        9288            0.0000000000
     27611      9204  TIP3      H1             27.9808194280      -51.0249024159        2.8914036648  W2        9288            0.0000000000
     27612      9204  TIP3      H2             27.5821194280      -51.6756224159        1.5839336648  W2        9288            0.0000000000
     27613      9205  TIP3      OH2            34.5952994280      -50.1271724159       13.4949436648  W2        9289            0.0000000000
     27614      9205  TIP3      H1             33.9427094280      -49.4326124159       13.5840336648  W2        9289            0.0000000000
     27615      9205  TIP3      H2             35.0603294280      -49.9170824159       12.6851036648  W2        9289            0.0000000000
     27616      9206  TIP3      OH2            30.6316794280      -49.2956924159        6.1530936648  W2        9290            0.0000000000
     27617      9206  TIP3      H1             29.8997794280      -49.0673224159        6.7261536648  W2        9290            0.0000000000
     27618      9206  TIP3      H2             31.0788994280      -50.0094224159        6.6078436648  W2        9290            0.0000000000
     27619      9207  TIP3      OH2            30.5290294280      -51.1214324159       15.2207936648  W2        9291            0.0000000000
     27620      9207  TIP3      H1             30.6089394280      -50.3579924159       15.7926436648  W2        9291            0.0000000000
     27621      9207  TIP3      H2             29.9277994280      -50.8421924159       14.5303036648  W2        9291            0.0000000000
     27622      9208  TIP3      OH2            22.2770494280      -48.6650724159        8.0355936648  W2        9292            0.0000000000
     27623      9208  TIP3      H1             21.9465694280      -49.0357324159        7.2172936648  W2        9292            0.0000000000
     27624      9208  TIP3      H2             22.8654594280      -49.3356724159        8.3824236648  W2        9292            0.0000000000
     27625      9209  TIP3      OH2            23.6437994280      -45.2370124159       10.7168136648  W2        9293            0.0000000000
     27626      9209  TIP3      H1             23.5489294280      -45.8157024159        9.9602736648  W2        9293            0.0000000000
     27627      9209  TIP3      H2             24.3731594280      -45.6084424159       11.2130936648  W2        9293            0.0000000000
     27628      9210  TIP3      OH2            22.6435994280      -49.8965124159       11.6690936648  W2        9294            0.0000000000
     27629      9210  TIP3      H1             23.2088494280      -49.7750924159       10.9062136648  W2        9294            0.0000000000
     27630      9210  TIP3      H2             22.9624894280      -49.2590124159       12.3079436648  W2        9294            0.0000000000
     27631      9211  TIP3      OH2            28.9528194280      -44.3933224159       12.4031436648  W2        9295            0.0000000000
     27632      9211  TIP3      H1             28.7124794280      -43.7310124159       13.0510636648  W2        9295            0.0000000000
     27633      9211  TIP3      H2             28.7546394280      -45.2278024159       12.8281036648  W2        9295            0.0000000000
     27634      9212  TIP3      OH2            23.5236694280      -45.4972424159       16.3862836648  W2        9296            0.0000000000
     27635      9212  TIP3      H1             23.2124194280      -44.7149224159       16.8416036648  W2        9296            0.0000000000
     27636      9212  TIP3      H2             22.8736894280      -45.6503324159       15.7004836648  W2        9296            0.0000000000
     27637      9213  TIP3      OH2            29.5026294280      -50.1334024159        3.8382136648  W2        9297            0.0000000000
     27638      9213  TIP3      H1             30.0821794280      -49.9833724159        4.5851036648  W2        9297            0.0000000000
     27639      9213  TIP3      H2             29.9166294280      -49.6626624159        3.1148536648  W2        9297            0.0000000000
     27640      9214  TIP3      OH2            20.4436594280      -49.2991324159       15.6148536648  W2        9298            0.0000000000
     27641      9214  TIP3      H1             20.5139794280      -48.6484524159       16.3133536648  W2        9298            0.0000000000
     27642      9214  TIP3      H2             19.5528794280      -49.1963824159       15.2799436648  W2        9298            0.0000000000
     27643      9215  TIP3      OH2            27.2291194280      -43.3965524159        7.2735236648  W2        9299            0.0000000000
     27644      9215  TIP3      H1             27.7028794280      -43.1009224159        8.0509436648  W2        9299            0.0000000000
     27645      9215  TIP3      H2             26.6660494280      -42.6583924159        7.0404836648  W2        9299            0.0000000000
     27646      9216  TIP3      OH2            21.7632594280      -43.4257424159       17.1496636648  W2        9300            0.0000000000
     27647      9216  TIP3      H1             21.7707894280      -43.5617724159       16.2022136648  W2        9300            0.0000000000
     27648      9216  TIP3      H2             20.8472994280      -43.5429324159       17.4016636648  W2        9300            0.0000000000
     27649      9217  TIP3      OH2            33.2014694280      -58.3833624159        3.6511836648  W2        9301            0.0000000000
     27650      9217  TIP3      H1             32.3015394280      -58.2444624159        3.9462436648  W2        9301            0.0000000000
     27651      9217  TIP3      H2             33.4533094280      -57.5519024159        3.2493536648  W2        9301            0.0000000000
     27652      9218  TIP3      OH2            21.2673194280      -49.5956424159        5.6248736648  W2        9302            0.0000000000
     27653      9218  TIP3      H1             20.9754494280      -48.8274724159        5.1340036648  W2        9302            0.0000000000
     27654      9218  TIP3      H2             20.5928394280      -50.2550224159        5.4620136648  W2        9302            0.0000000000
     27655      9219  TIP3      OH2            34.3906094280      -44.0171224159        2.0275736648  W2        9303            0.0000000000
     27656      9219  TIP3      H1             34.4639594280      -43.0781024159        2.1981036648  W2        9303            0.0000000000
     27657      9219  TIP3      H2             35.2961194280      -44.3222624159        1.9713036648  W2        9303            0.0000000000
     27658      9220  TIP3      OH2            17.3603294280      -47.2327224159       14.4398536648  W2        9304            0.0000000000
     27659      9220  TIP3      H1             16.8591694280      -47.2607824159       13.6248236648  W2        9304            0.0000000000
     27660      9220  TIP3      H2             17.3656994280      -48.1384024159       14.7495836648  W2        9304            0.0000000000
     27661      9221  TIP3      OH2            17.1105994280      -44.4523424159       11.3238736648  W2        9305            0.0000000000
     27662      9221  TIP3      H1             18.0566594280      -44.5966424159       11.3048236648  W2        9305            0.0000000000
     27663      9221  TIP3      H2             16.9982294280      -43.6680624159       11.8609936648  W2        9305            0.0000000000
     27664      9222  TIP3      OH2            35.3084494280      -43.7863724159       17.0062436648  W2        9306            0.0000000000
     27665      9222  TIP3      H1             35.2591294280      -44.7415624159       16.9690036648  W2        9306            0.0000000000
     27666      9222  TIP3      H2             34.4816794280      -43.5188424159       17.4076236648  W2        9306            0.0000000000
     27667      9223  TIP3      OH2            26.2868494280      -44.2124524159       15.8823836648  W2        9307            0.0000000000
     27668      9223  TIP3      H1             26.3743094280      -43.3859924159       16.3572936648  W2        9307            0.0000000000
     27669      9223  TIP3      H2             25.4233594280      -44.5420724159       16.1313136648  W2        9307            0.0000000000
     27670      9224  TIP3      OH2            26.7014294280      -40.4400824159        5.6884436648  W2        9308            0.0000000000
     27671      9224  TIP3      H1             26.6260294280      -40.5613624159        4.7419636648  W2        9308            0.0000000000
     27672      9224  TIP3      H2             26.7342994280      -39.4908124159        5.8069036648  W2        9308            0.0000000000
     27673      9225  TIP3      OH2            20.3548094280      -41.6513824159        7.4693436648  W2        9309            0.0000000000
     27674      9225  TIP3      H1             20.5068494280      -41.9993424159        8.3479936648  W2        9309            0.0000000000
     27675      9225  TIP3      H2             19.5038494280      -42.0076524159        7.2140636648  W2        9309            0.0000000000
     27676      9226  TIP3      OH2            29.8030294280      -41.2860624159        2.6906836648  W2        9310            0.0000000000
     27677      9226  TIP3      H1             30.1778694280      -42.0304524159        2.2199436648  W2        9310            0.0000000000
     27678      9226  TIP3      H2             29.8073994280      -41.5560024159        3.6090136648  W2        9310            0.0000000000
     27679      9227  TIP3      OH2            29.4718394280      -41.3603524159        5.4399036648  W2        9311            0.0000000000
     27680      9227  TIP3      H1             28.5368194280      -41.2601624159        5.6186036648  W2        9311            0.0000000000
     27681      9227  TIP3      H2             29.7520294280      -42.0697524159        6.0182236648  W2        9311            0.0000000000
     27682      9228  TIP3      OH2            32.4604294280      -52.2931224159       17.4864636648  W2        9312            0.0000000000
     27683      9228  TIP3      H1             32.0531094280      -51.8125624159       16.7657936648  W2        9312            0.0000000000
     27684      9228  TIP3      H2             32.5009994280      -53.1985224159       17.1785436648  W2        9312            0.0000000000
     27685      9229  TIP3      OH2            19.6093794280      -45.9091824159       15.4831336648  W2        9313            0.0000000000
     27686      9229  TIP3      H1             19.8255094280      -46.2706224159       16.3427136648  W2        9313            0.0000000000
     27687      9229  TIP3      H2             18.7538494280      -46.2838024159       15.2734836648  W2        9313            0.0000000000
     27688      9230  TIP3      OH2            22.2281794280      -57.4391324159       11.4785536648  W2        9314            0.0000000000
     27689      9230  TIP3      H1             21.3665494280      -57.5263124159       11.0708436648  W2        9314            0.0000000000
     27690      9230  TIP3      H2             22.2057494280      -56.5831224159       11.9063136648  W2        9314            0.0000000000
     27691      9231  TIP3      OH2            26.8909594280      -57.7170924159       14.8532536648  W2        9315            0.0000000000
     27692      9231  TIP3      H1             27.3112694280      -58.1323824159       15.6063136648  W2        9315            0.0000000000
     27693      9231  TIP3      H2             25.9579194280      -57.8957624159       14.9704536648  W2        9315            0.0000000000
     27694      9232  TIP3      OH2            30.2174494280      -53.9615724159       15.7067036648  W2        9316            0.0000000000
     27695      9232  TIP3      H1             29.7033994280      -54.0873524159       16.5043036648  W2        9316            0.0000000000
     27696      9232  TIP3      H2             30.0619194280      -53.0492624159       15.4623236648  W2        9316            0.0000000000
     27697      9233  TIP3      OH2            30.9799394280      -49.1005724159        1.4680036648  W2        9317            0.0000000000
     27698      9233  TIP3      H1             31.0220194280      -49.3231824159        0.5380036648  W2        9317            0.0000000000
     27699      9233  TIP3      H2             31.8291494280      -48.7018624159        1.6579936648  W2        9317            0.0000000000
     27700      9234  TIP3      OH2            26.5526894280      -55.2247524159        2.1383336648  W2        9318            0.0000000000
     27701      9234  TIP3      H1             26.2991694280      -55.2055924159        3.0611436648  W2        9318            0.0000000000
     27702      9234  TIP3      H2             26.2958994280      -56.0962124159        1.8369536648  W2        9318            0.0000000000
     27703      9235  TIP3      OH2            22.3191894280      -52.4736824159       12.5735736648  W2        9319            0.0000000000
     27704      9235  TIP3      H1             21.6773994280      -52.5139524159       13.2825836648  W2        9319            0.0000000000
     27705      9235  TIP3      H2             22.3563894280      -51.5472124159       12.3358736648  W2        9319            0.0000000000
     27706      9236  TIP3      OH2            22.3160994280      -52.2526724159        7.4855736648  W2        9320            0.0000000000
     27707      9236  TIP3      H1             21.4233894280      -52.5930624159        7.4269536648  W2        9320            0.0000000000
     27708      9236  TIP3      H2             22.7667594280      -52.6295824159        6.7298936648  W2        9320            0.0000000000
     27709      9237  TIP3      OH2            27.8516494280      -51.8366424159        6.3026536648  W2        9321            0.0000000000
     27710      9237  TIP3      H1             27.4426794280      -51.0217824159        6.0111336648  W2        9321            0.0000000000
     27711      9237  TIP3      H2             28.5722694280      -51.9766324159        5.6883636648  W2        9321            0.0000000000
     27712      9238  TIP3      OH2            26.9538094280      -51.6610024159       17.7907236648  W2        9322            0.0000000000
     27713      9238  TIP3      H1             26.3911894280      -52.3658424159       18.1115036648  W2        9322            0.0000000000
     27714      9238  TIP3      H2             27.7801494280      -51.7818124159       18.2584836648  W2        9322            0.0000000000
     27715      9239  TIP3      OH2            28.8564194280      -52.3906024159        9.1166236648  W2        9323            0.0000000000
     27716      9239  TIP3      H1             28.6608694280      -51.7849224159        8.4016836648  W2        9323            0.0000000000
     27717      9239  TIP3      H2             29.0376794280      -53.2240824159        8.6822536648  W2        9323            0.0000000000
     27718      9240  TIP3      OH2            20.0692394280      -52.1533324159       14.4407736648  W2        9324            0.0000000000
     27719      9240  TIP3      H1             20.0311794280      -51.7531724159       15.3094836648  W2        9324            0.0000000000
     27720      9240  TIP3      H2             19.5783494280      -52.9700924159       14.5310636648  W2        9324            0.0000000000
     27721      9241  TIP3      OH2            23.4349794280      -54.7791024159        1.2393736648  W2        9325            0.0000000000
     27722      9241  TIP3      H1             23.0040494280      -55.2240924159        1.9691136648  W2        9325            0.0000000000
     27723      9241  TIP3      H2             22.7168494280      -54.4074724159        0.7271236648  W2        9325            0.0000000000
     27724      9242  TIP3      OH2            16.6773194280      -55.0371524159        8.2912436648  W2        9326            0.0000000000
     27725      9242  TIP3      H1             17.3080894280      -55.0659424159        9.0106336648  W2        9326            0.0000000000
     27726      9242  TIP3      H2             17.1267494280      -55.4622824159        7.5608336648  W2        9326            0.0000000000
     27727      9243  TIP3      OH2            17.9515294280      -54.2909524159        3.7152836648  W2        9327            0.0000000000
     27728      9243  TIP3      H1             18.4256994280      -53.6999624159        3.1303736648  W2        9327            0.0000000000
     27729      9243  TIP3      H2             17.2341694280      -53.7606624159        4.0622936648  W2        9327            0.0000000000
     27730      9244  TIP3      OH2            28.1203394280      -50.7524724159       13.7878636648  W2        9328            0.0000000000
     27731      9244  TIP3      H1             28.4438194280      -51.3835024159       13.1449136648  W2        9328            0.0000000000
     27732      9244  TIP3      H2             27.6802694280      -51.2872524159       14.4486036648  W2        9328            0.0000000000
     27733      9245  TIP3      OH2            24.8976294280      -54.8249224159        8.5719836648  W2        9329            0.0000000000
     27734      9245  TIP3      H1             23.9867394280      -54.7682424159        8.8605836648  W2        9329            0.0000000000
     27735      9245  TIP3      H2             25.4029194280      -54.8853724159        9.3827036648  W2        9329            0.0000000000
     27736      9246  TIP3      OH2            19.7259694280      -53.1962924159        7.3987436648  W2        9330            0.0000000000
     27737      9246  TIP3      H1             18.8367694280      -53.0967424159        7.0587036648  W2        9330            0.0000000000
     27738      9246  TIP3      H2             20.0224594280      -54.0379924159        7.0525336648  W2        9330            0.0000000000
     27739      9247  TIP3      OH2            23.3791494280      -53.1960324159        5.0552036648  W2        9331            0.0000000000
     27740      9247  TIP3      H1             24.3106994280      -53.0670324159        5.2335136648  W2        9331            0.0000000000
     27741      9247  TIP3      H2             23.1641794280      -52.5266024159        4.4056736648  W2        9331            0.0000000000
     27742      9248  TIP3      OH2            29.3028194280      -55.5902924159       11.8361636648  W2        9332            0.0000000000
     27743      9248  TIP3      H1             28.6259794280      -55.4589824159       12.5001336648  W2        9332            0.0000000000
     27744      9248  TIP3      H2             28.8173094280      -55.7453424159       11.0259336648  W2        9332            0.0000000000
     27745      9249  TIP3      OH2            22.0531694280      -52.0018124159        2.6218136648  W2        9333            0.0000000000
     27746      9249  TIP3      H1             21.5106794280      -52.3814324159        1.9305736648  W2        9333            0.0000000000
     27747      9249  TIP3      H2             22.8866594280      -51.8073424159        2.1932236648  W2        9333            0.0000000000
     27748      9250  TIP3      OH2            20.1883094280      -47.4446224159       17.7209736648  W2        9335            0.0000000000
     27749      9250  TIP3      H1             20.9205494280      -47.1900324159       18.2824236648  W2        9335            0.0000000000
     27750      9250  TIP3      H2             19.4081794280      -47.2400824159       18.2365136648  W2        9335            0.0000000000
     27751      9251  TIP3      OH2            26.2175994280      -52.0376224159       10.4589436648  W2        9336            0.0000000000
     27752      9251  TIP3      H1             26.7819394280      -52.5839624159        9.9119036648  W2        9336            0.0000000000
     27753      9251  TIP3      H2             26.0699394280      -52.5594324159       11.2477036648  W2        9336            0.0000000000
     27754      9252  TIP3      OH2            21.2195694280      -55.9010124159        6.8774236648  W2        9337            0.0000000000
     27755      9252  TIP3      H1             20.9025194280      -56.8034824159        6.8419636648  W2        9337            0.0000000000
     27756      9252  TIP3      H2             22.0009794280      -55.8992724159        6.3245836648  W2        9337            0.0000000000
     27757      9253  TIP3      OH2            24.8441894280      -53.6490124159       12.8729836648  W2        9338            0.0000000000
     27758      9253  TIP3      H1             24.0087194280      -53.1950624159       12.9832236648  W2        9338            0.0000000000
     27759      9253  TIP3      H2             25.3682494280      -53.3731624159       13.6249736648  W2        9338            0.0000000000
     27760      9254  TIP3      OH2            25.3884494280      -47.4362424159        4.5576236648  W2        9339            0.0000000000
     27761      9254  TIP3      H1             24.6435494280      -47.9437124159        4.2354136648  W2        9339            0.0000000000
     27762      9254  TIP3      H2             25.2541694280      -47.3874424159        5.5041036648  W2        9339            0.0000000000
     27763      9255  TIP3      OH2            32.5383394280      -48.3034224159       13.3443836648  W2        9340            0.0000000000
     27764      9255  TIP3      H1             33.1802194280      -47.8467924159       12.8006036648  W2        9340            0.0000000000
     27765      9255  TIP3      H2             31.7080294280      -48.1901824159       12.8817936648  W2        9340            0.0000000000
     27766      9256  TIP3      OH2            29.2861294280      -54.6222524159        2.7568836648  W2        9341            0.0000000000
     27767      9256  TIP3      H1             28.3475494280      -54.5106924159        2.6057636648  W2        9341            0.0000000000
     27768      9256  TIP3      H2             29.5833394280      -53.7655624159        3.0634536648  W2        9341            0.0000000000
     27769      9257  TIP3      OH2            26.9076594280      -47.2519124159       15.7945336648  W2        9342            0.0000000000
     27770      9257  TIP3      H1             26.5622694280      -47.6336724159       16.6014936648  W2        9342            0.0000000000
     27771      9257  TIP3      H2             26.7076694280      -46.3185524159       15.8658236648  W2        9342            0.0000000000
     27772      9258  TIP3      OH2            30.0044794280      -52.7549824159        4.4176236648  W2        9343            0.0000000000
     27773      9258  TIP3      H1             30.8963794280      -52.8924824159        4.7367436648  W2        9343            0.0000000000
     27774      9258  TIP3      H2             30.0608394280      -51.9643724159        3.8809736648  W2        9343            0.0000000000
     27775      9259  TIP3      OH2            20.5132794280      -48.1412424159       10.3274136648  W2        9344            0.0000000000
     27776      9259  TIP3      H1             21.2579994280      -48.1436724159        9.7260636648  W2        9344            0.0000000000
     27777      9259  TIP3      H2             20.5909394280      -48.9648624159       10.8089236648  W2        9344            0.0000000000
     27778      9260  TIP3      OH2            27.5138594280      -45.9778124159        3.5830836648  W2        9345            0.0000000000
     27779      9260  TIP3      H1             27.2186994280      -45.1510224159        3.9645636648  W2        9345            0.0000000000
     27780      9260  TIP3      H2             26.8108594280      -46.5971224159        3.7792236648  W2        9345            0.0000000000
     27781      9261  TIP3      OH2            17.5212494280      -49.6805524159       15.6422636648  W2        9346            0.0000000000
     27782      9261  TIP3      H1             17.7441094280      -50.0985924159       16.4740136648  W2        9346            0.0000000000
     27783      9261  TIP3      H2             16.9192594280      -50.2930524159       15.2195436648  W2        9346            0.0000000000
     27784      9262  TIP3      OH2            29.1580194280      -44.7903624159       15.7450336648  W2        9348            0.0000000000
     27785      9262  TIP3      H1             28.2574494280      -44.6071024159       15.4774236648  W2        9348            0.0000000000
     27786      9262  TIP3      H2             29.1921294280      -44.5314324159       16.6659136648  W2        9348            0.0000000000
     27787      9263  TIP3      OH2            34.8893494280      -52.5455724159        4.1122936648  W2        9349            0.0000000000
     27788      9263  TIP3      H1             34.3349794280      -52.9417724159        3.4400436648  W2        9349            0.0000000000
     27789      9263  TIP3      H2             34.9897094280      -51.6350524159        3.8346236648  W2        9349            0.0000000000
     27790      9264  TIP3      OH2            34.8525494280      -46.7454024159       16.9494436648  W2        9350            0.0000000000
     27791      9264  TIP3      H1             34.0013994280      -46.5070224159       16.5820836648  W2        9350            0.0000000000
     27792      9264  TIP3      H2             35.4428894280      -46.7620824159       16.1961536648  W2        9350            0.0000000000
     27793      9265  TIP3      OH2            33.1845194280      -43.7595324159        4.5775036648  W2        9351            0.0000000000
     27794      9265  TIP3      H1             32.8116294280      -44.5851524159        4.8865636648  W2        9351            0.0000000000
     27795      9265  TIP3      H2             33.4618694280      -43.9425924159        3.6798436648  W2        9351            0.0000000000
     27796      9266  TIP3      OH2            30.3449094280      -48.9515824159       11.5986936648  W2        9352            0.0000000000
     27797      9266  TIP3      H1             29.4165994280      -49.1833924159       11.5716236648  W2        9352            0.0000000000
     27798      9266  TIP3      H2             30.7960194280      -49.7286024159       11.2685736648  W2        9352            0.0000000000
     27799      9267  TIP3      OH2            22.8882194280      -44.6234224159        7.7315636648  W2        9353            0.0000000000
     27800      9267  TIP3      H1             23.4154394280      -43.8499824159        7.5314436648  W2        9353            0.0000000000
     27801      9267  TIP3      H2             22.0080694280      -44.3985024159        7.4299636648  W2        9353            0.0000000000
     27802      9268  TIP3      OH2            18.6429894280      -49.7610124159        2.3188036648  W2        9354            0.0000000000
     27803      9268  TIP3      H1             19.2589794280      -49.1342924159        2.6982836648  W2        9354            0.0000000000
     27804      9268  TIP3      H2             17.7812494280      -49.4450324159        2.5904536648  W2        9354            0.0000000000
     27805      9269  TIP3      OH2            24.3154494280      -46.9604324159        7.3079936648  W2        9355            0.0000000000
     27806      9269  TIP3      H1             24.0744494280      -46.0349924159        7.3495236648  W2        9355            0.0000000000
     27807      9269  TIP3      H2             23.5748094280      -47.4193024159        7.7043836648  W2        9355            0.0000000000
     27808      9270  TIP3      OH2            24.8301094280      -42.8110724159       13.6231036648  W2        9356            0.0000000000
     27809      9270  TIP3      H1             25.1925794280      -41.9565124159       13.3895436648  W2        9356            0.0000000000
     27810      9270  TIP3      H2             25.3616294280      -43.1029124159       14.3637336648  W2        9356            0.0000000000
     27811      9271  TIP3      OH2            22.9985294280      -41.9386724159        6.8532136648  W2        9357            0.0000000000
     27812      9271  TIP3      H1             22.0485794280      -41.8329324159        6.9045436648  W2        9357            0.0000000000
     27813      9271  TIP3      H2             23.3503394280      -41.1179324159        7.1979636648  W2        9357            0.0000000000
     27814      9272  TIP3      OH2            28.3741894280      -46.7120024159       13.3236636648  W2        9358            0.0000000000
     27815      9272  TIP3      H1             27.9483194280      -46.9398324159       14.1500636648  W2        9358            0.0000000000
     27816      9272  TIP3      H2             28.9547694280      -47.4508224159       13.1411936648  W2        9358            0.0000000000
     27817      9273  TIP3      OH2            30.5770794280      -45.7829524159        2.3975636648  W2        9359            0.0000000000
     27818      9273  TIP3      H1             30.9303894280      -46.1629724159        3.2019136648  W2        9359            0.0000000000
     27819      9273  TIP3      H2             29.6284294280      -45.8764724159        2.4844936648  W2        9359            0.0000000000
     27820      9274  TIP3      OH2            31.0326094280      -42.1600524159       15.7931436648  W2        9360            0.0000000000
     27821      9274  TIP3      H1             30.4309294280      -42.7157624159       15.2977736648  W2        9360            0.0000000000
     27822      9274  TIP3      H2             31.3139794280      -41.4930724159       15.1668836648  W2        9360            0.0000000000
     27823      9275  TIP3      OH2            35.0805194280      -41.3037024159        2.5985836648  W2        9361            0.0000000000
     27824      9275  TIP3      H1             35.8243094280      -40.7176524159        2.4587436648  W2        9361            0.0000000000
     27825      9275  TIP3      H2             34.3863294280      -40.7351224159        2.9318236648  W2        9361            0.0000000000
     27826      9276  TIP3      OH2            19.1551994280      -54.9272824159       15.2004036648  W2        9362            0.0000000000
     27827      9276  TIP3      H1             18.2624294280      -54.5887424159       15.1328036648  W2        9362            0.0000000000
     27828      9276  TIP3      H2             19.0564794280      -55.7826724159       15.6184836648  W2        9362            0.0000000000
     27829      9277  TIP3      OH2            31.4430094280      -47.1107524159        4.6243536648  W2        9363            0.0000000000
     27830      9277  TIP3      H1             31.1657694280      -47.8388224159        5.1804636648  W2        9363            0.0000000000
     27831      9277  TIP3      H2             32.3703094280      -46.9915524159        4.8296136648  W2        9363            0.0000000000
     27832      9278  TIP3      OH2            18.8063994280      -43.1228424159       13.6353436648  W2        9364            0.0000000000
     27833      9278  TIP3      H1             19.0234294280      -44.0546024159       13.6043136648  W2        9364            0.0000000000
     27834      9278  TIP3      H2             19.0527494280      -42.8483424159       14.5186236648  W2        9364            0.0000000000
     27835      9279  TIP3      OH2            24.6678594280      -44.6713424159        0.8445636648  W2        9365            0.0000000000
     27836      9279  TIP3      H1             24.9068394280      -45.4195324159        0.2974536648  W2        9365            0.0000000000
     27837      9279  TIP3      H2             24.3989894280      -45.0591724159        1.6773436648  W2        9365            0.0000000000
     27838      9280  TIP3      OH2            23.6049194280      -45.1009624159        3.3008236648  W2        9366            0.0000000000
     27839      9280  TIP3      H1             23.7517194280      -45.6209824159        4.0909136648  W2        9366            0.0000000000
     27840      9280  TIP3      H2             23.6020894280      -44.1942024159        3.6074136648  W2        9366            0.0000000000
     27841      9281  TIP3      OH2            20.0580294280      -47.8486324159        3.8113636648  W2        9367            0.0000000000
     27842      9281  TIP3      H1             19.3719594280      -47.4963824159        4.3783336648  W2        9367            0.0000000000
     27843      9281  TIP3      H2             20.5808194280      -47.0856724159        3.5647936648  W2        9367            0.0000000000
     27844      9282  TIP3      OH2            27.8895394280      -55.1862524159       14.0902636648  W2        9368            0.0000000000
     27845      9282  TIP3      H1             28.5883294280      -55.1123824159       14.7402336648  W2        9368            0.0000000000
     27846      9282  TIP3      H2             27.5086794280      -56.0507524159       14.2445536648  W2        9368            0.0000000000
     27847      9283  TIP3      OH2            28.6740294280      -55.5340824159        5.1874936648  W2        9369            0.0000000000
     27848      9283  TIP3      H1             28.8938594280      -55.0625424159        4.3840336648  W2        9369            0.0000000000
     27849      9283  TIP3      H2             29.2324294280      -55.1398224159        5.8575536648  W2        9369            0.0000000000
     27850      9284  TIP3      OH2            26.3426394280      -43.4036024159        4.0502436648  W2        9370            0.0000000000
     27851      9284  TIP3      H1             25.5262494280      -42.9066324159        4.1026736648  W2        9370            0.0000000000
     27852      9284  TIP3      H2             26.8722694280      -42.9282524159        3.4101236648  W2        9370            0.0000000000
     27853      9285  TIP3      OH2            25.8740194280      -53.8062024159        6.0223336648  W2        9371            0.0000000000
     27854      9285  TIP3      H1             26.6862794280      -53.3018824159        6.0685036648  W2        9371            0.0000000000
     27855      9285  TIP3      H2             25.6293194280      -53.9512324159        6.9362936648  W2        9371            0.0000000000
     27856      9286  TIP3      OH2            26.4096594280      -52.8199324159       15.2069936648  W2        9372            0.0000000000
     27857      9286  TIP3      H1             26.5286894280      -52.2463924159       15.9640336648  W2        9372            0.0000000000
     27858      9286  TIP3      H2             27.0651194280      -53.5079924159       15.3217736648  W2        9372            0.0000000000
     27859      9287  TIP3      OH2            26.7576894280      -56.7249024159        6.9604436648  W2        9373            0.0000000000
     27860      9287  TIP3      H1             26.4110394280      -56.1078424159        7.6048736648  W2        9373            0.0000000000
     27861      9287  TIP3      H2             27.4163794280      -56.2243324159        6.4789936648  W2        9373            0.0000000000
     27862      9288  TIP3      OH2            23.6809494280      -42.3598824159        4.0319336648  W2        9374            0.0000000000
     27863      9288  TIP3      H1             23.8418194280      -41.5601324159        3.5311936648  W2        9374            0.0000000000
     27864      9288  TIP3      H2             23.4837294280      -42.0532824159        4.9169936648  W2        9374            0.0000000000
     27865      9289  TIP3      OH2            22.4153894280      -55.6619624159        3.6476936648  W2        9375            0.0000000000
     27866      9289  TIP3      H1             22.3318694280      -54.7736524159        3.9943336648  W2        9375            0.0000000000
     27867      9289  TIP3      H2             23.3054194280      -55.9272924159        3.8793736648  W2        9375            0.0000000000
     27868      9290  TIP3      OH2            32.6142394280      -54.9129024159       16.0419636648  W2        9376            0.0000000000
     27869      9290  TIP3      H1             31.6978194280      -54.6507324159       15.9543336648  W2        9376            0.0000000000
     27870      9290  TIP3      H2             32.9497394280      -54.9160024159       15.1454936648  W2        9376            0.0000000000
     27871      9291  TIP3      OH2            31.2163394280      -51.1628024159       10.1376936648  W2        9377            0.0000000000
     27872      9291  TIP3      H1             30.4187794280      -51.5777824159        9.8091936648  W2        9377            0.0000000000
     27873      9291  TIP3      H2             31.6614494280      -51.8534324159       10.6287436648  W2        9377            0.0000000000
     27874      9292  TIP3      OH2            20.6739194280      -45.2347424159        2.7081436648  W2        9378            0.0000000000
     27875      9292  TIP3      H1             21.2660694280      -44.5352624159        2.9843836648  W2        9378            0.0000000000
     27876      9292  TIP3      H2             21.1332194280      -45.6677924159        1.9886036648  W2        9378            0.0000000000
     27877      9293  TIP3      OH2            18.9898394280      -52.5704424159        1.8240836648  W2        9379            0.0000000000
     27878      9293  TIP3      H1             18.9450994280      -51.6311324159        2.0027836648  W2        9379            0.0000000000
     27879      9293  TIP3      H2             18.1021594280      -52.8059524159        1.5542936648  W2        9379            0.0000000000
     27880      9294  TIP3      OH2            32.3027994280      -41.9065524159       11.7600436648  W2        9380            0.0000000000
     27881      9294  TIP3      H1             32.1472294280      -41.2281124159       11.1029736648  W2        9380            0.0000000000
     27882      9294  TIP3      H2             33.2354394280      -41.8346224159       11.9631036648  W2        9380            0.0000000000
     27883      9295  TIP3      OH2            19.7980394280      -57.7887824159       10.4971836648  W2        9381            0.0000000000
     27884      9295  TIP3      H1             19.5690194280      -57.7295324159        9.5696836648  W2        9381            0.0000000000
     27885      9295  TIP3      H2             19.3553794280      -58.5802324159       10.8035936648  W2        9381            0.0000000000
     27886      9296  TIP3      OH2            18.7283694280      -43.8480724159        6.6577636648  W2        9382            0.0000000000
     27887      9296  TIP3      H1             17.8962294280      -43.3758024159        6.6849036648  W2        9382            0.0000000000
     27888      9296  TIP3      H2             19.2741994280      -43.3383124159        6.0590736648  W2        9382            0.0000000000
     27889      9297  TIP3      OH2            26.7060394280      -42.8082024159        0.9831636648  W2        9385            0.0000000000
     27890      9297  TIP3      H1             26.0621394280      -43.4393424159        1.3045336648  W2        9385            0.0000000000
     27891      9297  TIP3      H2             27.4678694280      -43.3394024159        0.7515136648  W2        9385            0.0000000000
     27892      9298  TIP3      OH2            31.3103294280      -42.9912124159        1.2169636648  W2        9387            0.0000000000
     27893      9298  TIP3      H1             31.5933694280      -43.7856924159        1.6696536648  W2        9387            0.0000000000
     27894      9298  TIP3      H2             32.0501194280      -42.7581124159        0.6560736648  W2        9387            0.0000000000
     27895      9299  TIP3      OH2            22.2650594280      -47.0817224159        1.0744536648  W2        9389            0.0000000000
     27896      9299  TIP3      H1             22.3294694280      -47.8757624159        1.6050936648  W2        9389            0.0000000000
     27897      9299  TIP3      H2             22.9179794280      -47.2004424159        0.3846536648  W2        9389            0.0000000000
     27898      9300  TIP3      OH2            27.6173994280      -46.0345524159        0.8102536648  W2        9391            0.0000000000
     27899      9300  TIP3      H1             27.3488094280      -45.8543424159        1.7111436648  W2        9391            0.0000000000
     27900      9300  TIP3      H2             27.4109594280      -46.9599324159        0.6788336648  W2        9391            0.0000000000
     27901      9301  TIP3      OH2            30.3138194280      -47.5397524159       15.7578636648  W2        9392            0.0000000000
     27902      9301  TIP3      H1             31.0592994280      -46.9513824159       15.6382636648  W2        9392            0.0000000000
     27903      9301  TIP3      H2             29.5564994280      -46.9577824159       15.8211736648  W2        9392            0.0000000000
     27904      9302  TIP3      OH2            23.4144394280      -49.1091024159        3.3802536648  W2        9394            0.0000000000
     27905      9302  TIP3      H1             22.9546394280      -49.5932724159        4.0661036648  W2        9394            0.0000000000
     27906      9302  TIP3      H2             23.6693094280      -49.7775624159        2.7443036648  W2        9394            0.0000000000
     27907      9303  TIP3      OH2            22.7033694280      -51.2163924159       15.7362136648  W2        9395            0.0000000000
     27908      9303  TIP3      H1             22.0849794280      -50.5417324159       16.0166836648  W2        9395            0.0000000000
     27909      9303  TIP3      H2             23.0474894280      -50.8950024159       14.9028336648  W2        9395            0.0000000000
     27910      9304  TIP3      OH2            24.4854794280      -50.8659224159        1.6425736648  W2        9396            0.0000000000
     27911      9304  TIP3      H1             24.3049794280      -51.0208024159        0.7154036648  W2        9396            0.0000000000
     27912      9304  TIP3      H2             25.4355294280      -50.7580524159        1.6873636648  W2        9396            0.0000000000
     27913      9305  TIP3      OH2            33.8753094280      -48.5115024159        1.0883836648  W2        9398            0.0000000000
     27914      9305  TIP3      H1             33.6017894280      -48.9359524159        0.2752136648  W2        9398            0.0000000000
     27915      9305  TIP3      H2             33.9147194280      -47.5800524159        0.8714236648  W2        9398            0.0000000000
     27916      9306  TIP3      OH2            23.0427394280      -53.8613124159       16.8185236648  W2        9399            0.0000000000
     27917      9306  TIP3      H1             23.1928294280      -54.5901824159       16.2164936648  W2        9399            0.0000000000
     27918      9306  TIP3      H2             23.0449794280      -53.0841424159       16.2597436648  W2        9399            0.0000000000
     27919      9307  TIP3      OH2            23.4553094280      -55.4917324159       14.3112636648  W2        9400            0.0000000000
     27920      9307  TIP3      H1             23.9910594280      -55.0400624159       13.6591936648  W2        9400            0.0000000000
     27921      9307  TIP3      H2             22.6032694280      -55.5997524159       13.8886736648  W2        9400            0.0000000000
     27922      9308  TIP3      OH2            25.0371494280      -50.0521124159       14.5507836648  W2        9401            0.0000000000
     27923      9308  TIP3      H1             25.7876294280      -50.2083624159       13.9775636648  W2        9401            0.0000000000
     27924      9308  TIP3      H2             24.6979794280      -49.2004524159       14.2753336648  W2        9401            0.0000000000
     27925      9309  TIP3      OH2            30.7694894280      -49.4484124159       17.6565836648  W2        9403            0.0000000000
     27926      9309  TIP3      H1             30.4879894280      -48.7389524159       17.0789636648  W2        9403            0.0000000000
     27927      9309  TIP3      H2             31.7119194280      -49.5211124159       17.5057036648  W2        9403            0.0000000000
     27928      9310  TIP3      OH2            24.2608594280      -58.0351624159       14.7426236648  W2        9405            0.0000000000
     27929      9310  TIP3      H1             24.1628194280      -57.0888424159       14.6372436648  W2        9405            0.0000000000
     27930      9310  TIP3      H2             23.5184794280      -58.4077824159       14.2669736648  W2        9405            0.0000000000
     27931      9311  TIP3      OH2            28.2405694280      -54.5862724159       17.3818136648  W2        9407            0.0000000000
     27932      9311  TIP3      H1             27.2931094280      -54.5543024159       17.5141436648  W2        9407            0.0000000000
     27933      9311  TIP3      H2             28.5532394280      -55.2115624159       18.0356336648  W2        9407            0.0000000000
     27934      9312  TIP3      OH2            24.4826694280      -58.7414224159       17.4139036648  W2        9410            0.0000000000
     27935      9312  TIP3      H1             25.1945094280      -59.3812024159       17.3998136648  W2        9410            0.0000000000
     27936      9312  TIP3      H2             24.3817094280      -58.4745924159       16.5002136648  W2        9410            0.0000000000
     27937      9313  TIP3      OH2            24.3826494280      -40.1755524159        2.6439336648  W2        9412            0.0000000000
     27938      9313  TIP3      H1             25.3157194280      -40.0176824159        2.7877736648  W2        9412            0.0000000000
     27939      9313  TIP3      H2             24.1185294280      -39.5002524159        2.0190836648  W2        9412            0.0000000000
     27940      9314  TIP3      OH2            17.9511394280      -45.5391724159        2.1267436648  W2        9413            0.0000000000
     27941      9314  TIP3      H1             18.8650594280      -45.4602824159        2.4001336648  W2        9413            0.0000000000
     27942      9314  TIP3      H2             17.9584494280      -46.2262124159        1.4603036648  W2        9413            0.0000000000
     27943      9315  TIP3      OH2            16.6001994280      -40.1463224159        7.2041336648  W2        9414            0.0000000000
     27944      9315  TIP3      H1             15.9529094280      -40.6081524159        6.6712536648  W2        9414            0.0000000000
     27945      9315  TIP3      H2             16.9546594280      -40.8179924159        7.7867536648  W2        9414            0.0000000000
     27946      9316  TIP3      OH2            17.4701194280      -42.0656224159        9.0087536648  W2        9415            0.0000000000
     27947      9316  TIP3      H1             17.1357994280      -42.9458924159        9.1807736648  W2        9415            0.0000000000
     27948      9316  TIP3      H2             17.6923594280      -41.7201224159        9.8733136648  W2        9415            0.0000000000
     27949      9317  TIP3      OH2            35.0185994280      -41.2559824159       11.9892336648  W2        9416            0.0000000000
     27950      9317  TIP3      H1             34.9972694280      -41.0711424159       12.9281736648  W2        9416            0.0000000000
     27951      9317  TIP3      H2             35.7092194280      -40.6875824159       11.6483736648  W2        9416            0.0000000000
     27952      9318  TIP3      OH2            34.5818894280      -41.6888724159       14.9111436648  W2        9417            0.0000000000
     27953      9318  TIP3      H1             34.0947594280      -42.4244624159       14.5398836648  W2        9417            0.0000000000
     27954      9318  TIP3      H2             35.1311594280      -42.0824824159       15.5890836648  W2        9417            0.0000000000
     27955      9319  TIP3      OH2            34.3335894280      -47.6426924159        5.0634236648  W2        9419            0.0000000000
     27956      9319  TIP3      H1             35.1837294280      -47.2216024159        5.1905836648  W2        9419            0.0000000000
     27957      9319  TIP3      H2             34.3390994280      -48.3826824159        5.6705636648  W2        9419            0.0000000000
     27958      9320  TIP3      OH2            34.7281494280      -49.5889524159        6.8869936648  W2        9420            0.0000000000
     27959      9320  TIP3      H1             34.0016094280      -50.0686924159        7.2847536648  W2        9420            0.0000000000
     27960      9320  TIP3      H2             35.3094794280      -49.3834824159        7.6191536648  W2        9420            0.0000000000
     27961      9321  TIP3      OH2            34.4872694280      -46.8042024159       11.8347536648  W2        9421            0.0000000000
     27962      9321  TIP3      H1             35.3206894280      -47.1822024159       11.5541136648  W2        9421            0.0000000000
     27963      9321  TIP3      H2             34.5992994280      -45.8610824159       11.7156636648  W2        9421            0.0000000000
     27964      9322  TIP3      OH2            32.9734994280      -43.9264524159       14.1415936648  W2        9422            0.0000000000
     27965      9322  TIP3      H1             32.3260294280      -43.6013024159       14.7671136648  W2        9422            0.0000000000
     27966      9322  TIP3      H2             32.4558994280      -44.3666824159       13.4674236648  W2        9422            0.0000000000
     27967      9323  TIP3      OH2            34.9964594280      -49.6881024159        3.2781236648  W2        9423            0.0000000000
     27968      9323  TIP3      H1             34.4745694280      -49.3316924159        2.5592136648  W2        9423            0.0000000000
     27969      9323  TIP3      H2             34.9633794280      -49.0133224159        3.9562136648  W2        9423            0.0000000000
     27970      9324  TIP3      OH2            33.3453594280      -52.4485424159        1.8288336648  W2        9424            0.0000000000
     27971      9324  TIP3      H1             33.4417994280      -51.7818424159        1.1488036648  W2        9424            0.0000000000
     27972      9324  TIP3      H2             33.2053194280      -53.2639124159        1.3473836648  W2        9424            0.0000000000
     27973      9325  TIP3      OH2            32.5148294280      -51.0683024159        7.4498636648  W2        9425            0.0000000000
     27974      9325  TIP3      H1             32.3647094280      -52.0134424159        7.4296436648  W2        9425            0.0000000000
     27975      9325  TIP3      H2             32.1612794280      -50.7871624159        8.2937736648  W2        9425            0.0000000000
     27976      9326  TIP3      OH2            17.5500694280      -48.9900824159       11.4602436648  W2        9426            0.0000000000
     27977      9326  TIP3      H1             17.7343594280      -49.0719124159       10.5245336648  W2        9426            0.0000000000
     27978      9326  TIP3      H2             18.3993594280      -49.1143824159       11.8838836648  W2        9426            0.0000000000
     27979      9327  TIP3      OH2            33.3711194280      -49.0979724159       17.0886936648  W2        9427            0.0000000000
     27980      9327  TIP3      H1             33.9538494280      -49.8327424159       17.2804136648  W2        9427            0.0000000000
     27981      9327  TIP3      H2             33.9350494280      -48.3259424159       17.1352736648  W2        9427            0.0000000000
     27982      9328  TIP3      OH2            34.8678294280      -51.1953924159       17.7732336648  W2        9428            0.0000000000
     27983      9328  TIP3      H1             34.0044994280      -51.5741824159       17.6077036648  W2        9428            0.0000000000
     27984      9328  TIP3      H2             35.4721994280      -51.9339124159       17.6988136648  W2        9428            0.0000000000
     27985      9329  TIP3      OH2            32.5927394280      -55.0405624159        0.9463836648  W2        9429            0.0000000000
     27986      9329  TIP3      H1             33.2033194280      -55.4118824159        1.5832036648  W2        9429            0.0000000000
     27987      9329  TIP3      H2             31.7558894280      -55.4618724159        1.1423836648  W2        9429            0.0000000000
     27988      9330  TIP3      OH2            32.2253094280      -53.4857224159        5.9123736648  W2        9430            0.0000000000
     27989      9330  TIP3      H1             32.5050194280      -54.3926824159        6.0365436648  W2        9430            0.0000000000
     27990      9330  TIP3      H2             32.9844794280      -53.0515724159        5.5232936648  W2        9430            0.0000000000
     27991      9331  TIP3      OH2            32.8371394280      -52.9039824159       11.3482636648  W2        9431            0.0000000000
     27992      9331  TIP3      H1             33.7699394280      -52.6919924159       11.3138636648  W2        9431            0.0000000000
     27993      9331  TIP3      H2             32.6018894280      -52.8027724159       12.2705636648  W2        9431            0.0000000000
     27994      9332  TIP3      OH2            32.8663294280      -52.1674524159       14.1242036648  W2        9432            0.0000000000
     27995      9332  TIP3      H1             32.0234594280      -51.8994124159       14.4901836648  W2        9432            0.0000000000
     27996      9332  TIP3      H2             33.3087594280      -51.3452624159       13.9133136648  W2        9432            0.0000000000
     27997      9333  TIP3      OH2            17.1475494280      -53.7195824159       17.6011236648  W2        9433            0.0000000000
     27998      9333  TIP3      H1             18.0670394280      -53.8417524159       17.8374336648  W2        9433            0.0000000000
     27999      9333  TIP3      H2             16.6979994280      -54.4696124159       17.9904736648  W2        9433            0.0000000000
     28000      9334  TIP3      OH2            32.8387894280      -56.2227924159        5.9605736648  W2        9435            0.0000000000
     28001      9334  TIP3      H1             33.0212894280      -56.6716424159        6.7860736648  W2        9435            0.0000000000
     28002      9334  TIP3      H2             32.2390794280      -56.8073524159        5.4970336648  W2        9435            0.0000000000
     28003      9335  TIP3      OH2            18.3687994280      -55.4074224159       10.4924136648  W2        9436            0.0000000000
     28004      9335  TIP3      H1             18.8139594280      -56.1991724159       10.7943836648  W2        9436            0.0000000000
     28005      9335  TIP3      H2             18.8350994280      -54.6909024159       10.9229736648  W2        9436            0.0000000000
     28006      9336  TIP3      OH2            16.6728294280      -52.4081224159       11.5614336648  W2        9437            0.0000000000
     28007      9336  TIP3      H1             17.1648094280      -52.6290724159       10.7706336648  W2        9437            0.0000000000
     28008      9336  TIP3      H2             17.0349194280      -51.5677824159       11.8423836648  W2        9437            0.0000000000
     28009      9337  TIP3      OH2            34.7054094280      -56.1549824159        2.4886036648  W2        9439            0.0000000000
     28010      9337  TIP3      H1             35.1176694280      -56.8764124159        2.0134036648  W2        9439            0.0000000000
     28011      9337  TIP3      H2             35.3870594280      -55.4855224159        2.5470336648  W2        9439            0.0000000000
     28012      9338  TIP3      OH2            16.9864794280      -56.1502124159        5.6156736648  W2        9440            0.0000000000
     28013      9338  TIP3      H1             16.0613194280      -55.9415524159        5.4862236648  W2        9440            0.0000000000
     28014      9338  TIP3      H2             17.4404694280      -55.6661324159        4.9259036648  W2        9440            0.0000000000
     28015      9339  TIP3      OH2            31.7571994280      -41.1660424159        7.5614136648  W2        9441            0.0000000000
     28016      9339  TIP3      H1             32.4094894280      -41.5138324159        6.9533236648  W2        9441            0.0000000000
     28017      9339  TIP3      H2             32.2675794280      -40.6777224159        8.2073836648  W2        9441            0.0000000000
     28018      9340  TIP3      OH2            16.9500194280      -57.4123124159       13.9599236648  W2        9442            0.0000000000
     28019      9340  TIP3      H1             16.2850694280      -57.6582824159       14.6030136648  W2        9442            0.0000000000
     28020      9340  TIP3      H2             16.5071494280      -56.7902724159       13.3827236648  W2        9442            0.0000000000
     28021      9341  TIP3      OH2            22.0962394280      -43.2627824159       14.3629036648  W2        9444            0.0000000000
     28022      9341  TIP3      H1             21.6713494280      -42.4529324159       14.0803636648  W2        9444            0.0000000000
     28023      9341  TIP3      H2             23.0005194280      -43.1773724159       14.0608836648  W2        9444            0.0000000000
     28024      9342  TIP3      OH2            26.4073794280      -41.8637824159       17.3222736648  W2        9445            0.0000000000
     28025      9342  TIP3      H1             26.5921294280      -42.1971724159       18.2003036648  W2        9445            0.0000000000
     28026      9342  TIP3      H2             27.2538294280      -41.5539224159       17.0001936648  W2        9445            0.0000000000
     28027      9343  TIP3      OH2            28.7524194280      -40.5778924159       16.5664136648  W2        9446            0.0000000000
     28028      9343  TIP3      H1             29.4293094280      -41.2106624159       16.3263336648  W2        9446            0.0000000000
     28029      9343  TIP3      H2             29.0742994280      -40.1768424159       17.3737436648  W2        9446            0.0000000000
     28030      9344  TIP3      OH2            33.6697994280      -57.9883424159       15.6459136648  W2        9447            0.0000000000
     28031      9344  TIP3      H1             32.8571494280      -57.6633124159       15.2583836648  W2        9447            0.0000000000
     28032      9344  TIP3      H2             33.9026494280      -58.7484924159       15.1128236648  W2        9447            0.0000000000
     28033      9345  TIP3      OH2            19.4979094280      -40.0063924159       14.4104336648  W2        9448            0.0000000000
     28034      9345  TIP3      H1             18.7775494280      -39.5662924159       13.9592036648  W2        9448            0.0000000000
     28035      9345  TIP3      H2             19.1323094280      -40.2569224159       15.2588336648  W2        9448            0.0000000000
     28036      9346  TIP3      OH2            21.9651694280      -40.4060024159       13.4401536648  W2        9449            0.0000000000
     28037      9346  TIP3      H1             21.1003894280      -40.3341524159       13.8441636648  W2        9449            0.0000000000
     28038      9346  TIP3      H2             21.9100694280      -39.8592724159       12.6564036648  W2        9449            0.0000000000
     28039      9347  TIP3      OH2            26.6757294280      -40.5181124159       12.6157536648  W2        9450            0.0000000000
     28040      9347  TIP3      H1             26.2191294280      -39.9891424159       11.9615936648  W2        9450            0.0000000000
     28041      9347  TIP3      H2             26.8385294280      -39.9149724159       13.3409836648  W2        9450            0.0000000000
     28042      9348  TIP3      OH2            29.0033594280      -41.6401524159       13.5607836648  W2        9451            0.0000000000
     28043      9348  TIP3      H1             28.0987294280      -41.4751324159       13.2949936648  W2        9451            0.0000000000
     28044      9348  TIP3      H2             29.4322194280      -40.7869324159       13.4951236648  W2        9451            0.0000000000
     28045      9349  TIP3      OH2            31.6075494280      -40.0702424159       13.8555636648  W2        9452            0.0000000000
     28046      9349  TIP3      H1             31.4257494280      -39.1543524159       13.6450536648  W2        9452            0.0000000000
     28047      9349  TIP3      H2             31.7843294280      -40.4805324159       13.0090236648  W2        9452            0.0000000000
     28048      9350  TIP3      OH2            18.9127194280      -41.3831424159       11.3206136648  W2        9453            0.0000000000
     28049      9350  TIP3      H1             18.8943194280      -41.8086324159       12.1778436648  W2        9453            0.0000000000
     28050      9350  TIP3      H2             19.7175094280      -41.7016424159       10.9118336648  W2        9453            0.0000000000
     28051      9351  TIP3      OH2            21.0540294280      -42.6732724159        9.9756036648  W2        9454            0.0000000000
     28052      9351  TIP3      H1             20.8350994280      -43.5895324159       10.1452036648  W2        9454            0.0000000000
     28053      9351  TIP3      H2             21.8782494280      -42.5332324159       10.4417436648  W2        9454            0.0000000000
     28054      9352  TIP3      OH2            23.5912794280      -42.2033424159       10.8244036648  W2        9455            0.0000000000
     28055      9352  TIP3      H1             23.8038494280      -43.0914424159       10.5374936648  W2        9455            0.0000000000
     28056      9352  TIP3      H2             23.6557894280      -42.2375724159       11.7788036648  W2        9455            0.0000000000
     28057      9353  TIP3      OH2            27.0996494280      -56.5392824159        9.9687336648  W2        9456            0.0000000000
     28058      9353  TIP3      H1             26.4253294280      -57.1687224159       10.2243136648  W2        9456            0.0000000000
     28059      9353  TIP3      H2             27.6635694280      -57.0233924159        9.3655236648  W2        9456            0.0000000000
     28060      9354  TIP3      OH2            32.2423694280      -58.4318824159       10.0814436648  W2        9457            0.0000000000
     28061      9354  TIP3      H1             32.8461294280      -57.8843424159        9.5795436648  W2        9457            0.0000000000
     28062      9354  TIP3      H2             31.3725694280      -58.1128424159        9.8408536648  W2        9457            0.0000000000
     28063      9355  TIP3      OH2            33.9694094280      -57.2930124159        8.4145336648  W2        9458            0.0000000000
     28064      9355  TIP3      H1             34.5811594280      -57.8074424159        7.8878936648  W2        9458            0.0000000000
     28065      9355  TIP3      H2             34.3517494280      -56.4158024159        8.4379736648  W2        9458            0.0000000000
     28066      9356  TIP3      OH2            19.4263994280      -57.9052524159        7.7907236648  W2        9459            0.0000000000
     28067      9356  TIP3      H1             18.6493794280      -58.1397624159        7.2833136648  W2        9459            0.0000000000
     28068      9356  TIP3      H2             19.9567594280      -58.7020424159        7.7995236648  W2        9459            0.0000000000
     28069      9357  TIP3      OH2            18.2627394280      -58.1074424159        3.5943336648  W2        9460            0.0000000000
     28070      9357  TIP3      H1             18.7018094280      -57.4963924159        3.0026836648  W2        9460            0.0000000000
     28071      9357  TIP3      H2             17.6289794280      -57.5690324159        4.0683336648  W2        9460            0.0000000000
     28072      9358  TIP3      OH2            24.0056594280      -57.9785424159        7.6040336648  W2        9461            0.0000000000
     28073      9358  TIP3      H1             24.8799994280      -57.5901124159        7.5744636648  W2        9461            0.0000000000
     28074      9358  TIP3      H2             23.8697394280      -58.1937624159        8.5267536648  W2        9461            0.0000000000
     28075      9359  TIP3      OH2            29.5624994280      -57.9485624159        9.2532036648  W2        9462            0.0000000000
     28076      9359  TIP3      H1             29.6386594280      -57.8534024159        8.3038036648  W2        9462            0.0000000000
     28077      9359  TIP3      H2             29.2874194280      -58.8562724159        9.3821136648  W2        9462            0.0000000000
     28078      9360  TIP3      OH2            30.9157594280      -57.9227824159        4.9457036648  W2        9463            0.0000000000
     28079      9360  TIP3      H1             30.2128694280      -57.3078624159        4.7358436648  W2        9463            0.0000000000
     28080      9360  TIP3      H2             30.4708994280      -58.7601124159        5.0767936648  W2        9463            0.0000000000
     28081      9361  TIP3      OH2            18.1636894280      -42.1592224159        4.4918436648  W2        9464            0.0000000000
     28082      9361  TIP3      H1             17.4786794280      -42.1973324159        3.8243536648  W2        9464            0.0000000000
     28083      9361  TIP3      H2             18.1674094280      -41.2464624159        4.7800536648  W2        9464            0.0000000000
     28084      9362  TIP3      OH2            20.1236494280      -56.1912924159        2.0367436648  W2        9465            0.0000000000
     28085      9362  TIP3      H1             20.6149894280      -56.8210524159        1.5092936648  W2        9465            0.0000000000
     28086      9362  TIP3      H2             20.7472794280      -55.8953524159        2.6998636648  W2        9465            0.0000000000
     28087      9363  TIP3      OH2            25.1496594280      -55.8981424159        4.4937936648  W2        9466            0.0000000000
     28088      9363  TIP3      H1             25.3277894280      -56.5448224159        5.1766536648  W2        9466            0.0000000000
     28089      9363  TIP3      H2             25.0962794280      -55.0643724159        4.9609036648  W2        9466            0.0000000000
     28090      9364  TIP3      OH2            27.0280394280      -40.9497324159        2.8894636648  W2        9467            0.0000000000
     28091      9364  TIP3      H1             27.8940594280      -40.5829924159        2.7112836648  W2        9467            0.0000000000
     28092      9364  TIP3      H2             26.7813194280      -41.3889324159        2.0755436648  W2        9467            0.0000000000
     28093      9365  TIP3      OH2            33.7369994280      -41.3867024159        5.5685736648  W2        9468            0.0000000000
     28094      9365  TIP3      H1             33.5427094280      -42.1344924159        5.0035336648  W2        9468            0.0000000000
     28095      9365  TIP3      H2             33.6980094280      -40.6286924159        4.9853636648  W2        9468            0.0000000000
     28096      9366  TIP3      OH2            19.3841994280      -57.3910624159       17.3083436648  W2        9469            0.0000000000
     28097      9366  TIP3      H1             19.0180194280      -58.1568024159       17.7508136648  W2        9469            0.0000000000
     28098      9366  TIP3      H2             20.2970494280      -57.3620424159       17.5948536648  W2        9469            0.0000000000
     28099      9367  TIP3      OH2            19.9818094280      -41.2391424159        1.5170536648  W2        9471            0.0000000000
     28100      9367  TIP3      H1             19.7142694280      -40.9528524159        2.3903636648  W2        9471            0.0000000000
     28101      9367  TIP3      H2             20.7530694280      -41.7852224159        1.6693036648  W2        9471            0.0000000000
     28102      9368  TIP3      OH2            32.9546194280      -42.6354624159       17.7187536648  W2        9473            0.0000000000
     28103      9368  TIP3      H1             32.1728094280      -42.8216624159       17.1988136648  W2        9473            0.0000000000
     28104      9368  TIP3      H2             32.8826094280      -41.7060324159       17.9360036648  W2        9473            0.0000000000
     28105      9369  TIP3      OH2            47.3606594280      -48.7490224159        7.7494736648  W2        9474            0.0000000000
     28106      9369  TIP3      H1             47.4497694280      -47.8052024159        7.6171836648  W2        9474            0.0000000000
     28107      9369  TIP3      H2             46.7224194280      -49.0243824159        7.0914136648  W2        9474            0.0000000000
     28108      9370  TIP3      OH2            46.2937894280      -49.4939524159       11.1682936648  W2        9475            0.0000000000
     28109      9370  TIP3      H1             46.2555394280      -50.1403224159       11.8732536648  W2        9475            0.0000000000
     28110      9370  TIP3      H2             45.9714394280      -49.9605124159       10.3971636648  W2        9475            0.0000000000
     28111      9371  TIP3      OH2            38.6622894280      -49.8797424159       12.7612836648  W2        9476            0.0000000000
     28112      9371  TIP3      H1             38.7034994280      -50.5054124159       13.4845236648  W2        9476            0.0000000000
     28113      9371  TIP3      H2             39.3650594280      -49.2558824159       12.9433236648  W2        9476            0.0000000000
     28114      9372  TIP3      OH2            49.9998094280      -46.5549124159        9.4698036648  W2        9477            0.0000000000
     28115      9372  TIP3      H1             49.5590794280      -47.2753124159        9.9203636648  W2        9477            0.0000000000
     28116      9372  TIP3      H2             49.9867794280      -45.8341924159       10.0995736648  W2        9477            0.0000000000
     28117      9373  TIP3      OH2            39.5855994280      -45.4298524159       11.2961936648  W2        9478            0.0000000000
     28118      9373  TIP3      H1             39.2161194280      -46.2318024159       10.9266236648  W2        9478            0.0000000000
     28119      9373  TIP3      H2             40.5267094280      -45.5983624159       11.3425336648  W2        9478            0.0000000000
     28120      9374  TIP3      OH2            36.1956494280      -51.7695924159        6.6890736648  W2        9479            0.0000000000
     28121      9374  TIP3      H1             35.7479894280      -50.9237224159        6.6707236648  W2        9479            0.0000000000
     28122      9374  TIP3      H2             35.6347694280      -52.3491724159        6.1735836648  W2        9479            0.0000000000
     28123      9375  TIP3      OH2            36.9062594280      -49.6076324159        8.8148736648  W2        9480            0.0000000000
     28124      9375  TIP3      H1             37.1196094280      -50.3774724159        9.3421736648  W2        9480            0.0000000000
     28125      9375  TIP3      H2             37.6440194280      -49.5179624159        8.2116336648  W2        9480            0.0000000000
     28126      9376  TIP3      OH2            47.1113594280      -41.4507424159        9.6818436648  W2        9481            0.0000000000
     28127      9376  TIP3      H1             47.7309994280      -42.1272724159        9.4087636648  W2        9481            0.0000000000
     28128      9376  TIP3      H2             46.9030994280      -41.6686624159       10.5903336648  W2        9481            0.0000000000
     28129      9377  TIP3      OH2            44.6832294280      -47.0618124159       11.5743936648  W2        9482            0.0000000000
     28130      9377  TIP3      H1             44.9870194280      -47.7476724159       10.9798036648  W2        9482            0.0000000000
     28131      9377  TIP3      H2             45.4046294280      -46.9429424159       12.1921936648  W2        9482            0.0000000000
     28132      9378  TIP3      OH2            53.3462094280      -55.4602824159       12.4350136648  W2        9483            0.0000000000
     28133      9378  TIP3      H1             53.3954294280      -54.8501624159       13.1709236648  W2        9483            0.0000000000
     28134      9378  TIP3      H2             53.7717194280      -54.9991924159       11.7121236648  W2        9483            0.0000000000
     28135      9379  TIP3      OH2            47.8239294280      -52.6675724159       11.9018736648  W2        9484            0.0000000000
     28136      9379  TIP3      H1             47.9665194280      -53.6138724159       11.9220336648  W2        9484            0.0000000000
     28137      9379  TIP3      H2             47.7178294280      -52.4605924159       10.9733636648  W2        9484            0.0000000000
     28138      9380  TIP3      OH2            40.9787594280      -54.5659324159        9.1743536648  W2        9485            0.0000000000
     28139      9380  TIP3      H1             41.0218694280      -53.7060824159        8.7559836648  W2        9485            0.0000000000
     28140      9380  TIP3      H2             40.5211694280      -55.1184624159        8.5406736648  W2        9485            0.0000000000
     28141      9381  TIP3      OH2            48.7010294280      -54.4353724159        7.5751836648  W2        9486            0.0000000000
     28142      9381  TIP3      H1             49.3474594280      -54.7640524159        8.1999436648  W2        9486            0.0000000000
     28143      9381  TIP3      H2             49.2109694280      -53.9174724159        6.9523236648  W2        9486            0.0000000000
     28144      9382  TIP3      OH2            37.5989094280      -52.1693524159        9.9364936648  W2        9487            0.0000000000
     28145      9382  TIP3      H1             38.2525694280      -52.7191824159       10.3685036648  W2        9487            0.0000000000
     28146      9382  TIP3      H2             37.6228394280      -52.4434524159        9.0196936648  W2        9487            0.0000000000
     28147      9383  TIP3      OH2            42.7553594280      -50.6192224159        9.1516436648  W2        9488            0.0000000000
     28148      9383  TIP3      H1             43.3714594280      -51.1456824159        9.6610436648  W2        9488            0.0000000000
     28149      9383  TIP3      H2             42.1692394280      -51.2593524159        8.7480036648  W2        9488            0.0000000000
     28150      9384  TIP3      OH2            53.7376694280      -53.9823624159       14.6709936648  W2        9489            0.0000000000
     28151      9384  TIP3      H1             53.0491294280      -53.3242924159       14.5756536648  W2        9489            0.0000000000
     28152      9384  TIP3      H2             53.7531294280      -54.1795724159       15.6075336648  W2        9489            0.0000000000
     28153      9385  TIP3      OH2            39.7889494280      -55.6480924159       13.2484336648  W2        9490            0.0000000000
     28154      9385  TIP3      H1             39.5701194280      -55.1180324159       12.4820336648  W2        9490            0.0000000000
     28155      9385  TIP3      H2             39.1210394280      -55.4215424159       13.8955736648  W2        9490            0.0000000000
     28156      9386  TIP3      OH2            47.1579294280      -46.1479824159        6.7923436648  W2        9491            0.0000000000
     28157      9386  TIP3      H1             46.8624394280      -46.4707524159        5.9410336648  W2        9491            0.0000000000
     28158      9386  TIP3      H2             46.8337094280      -45.2483124159        6.8336036648  W2        9491            0.0000000000
     28159      9387  TIP3      OH2            42.3580894280      -47.9725224159       13.5358036648  W2        9492            0.0000000000
     28160      9387  TIP3      H1             41.6179994280      -47.3743724159       13.6393236648  W2        9492            0.0000000000
     28161      9387  TIP3      H2             43.0720394280      -47.4185624159       13.2201636648  W2        9492            0.0000000000
     28162      9388  TIP3      OH2            50.4648694280      -55.1444424159        9.5557736648  W2        9493            0.0000000000
     28163      9388  TIP3      H1             50.2496694280      -55.9101024159       10.0883736648  W2        9493            0.0000000000
     28164      9388  TIP3      H2             51.1206094280      -54.6719824159       10.0686236648  W2        9493            0.0000000000
     28165      9389  TIP3      OH2            39.3826794280      -53.7559124159       11.2006536648  W2        9494            0.0000000000
     28166      9389  TIP3      H1             39.9963094280      -53.1231524159       11.5738936648  W2        9494            0.0000000000
     28167      9389  TIP3      H2             39.8947494280      -54.2284124159       10.5443436648  W2        9494            0.0000000000
     28168      9390  TIP3      OH2            40.7655194280      -46.0082224159       14.3229536648  W2        9495            0.0000000000
     28169      9390  TIP3      H1             40.7602794280      -45.1288724159       13.9448836648  W2        9495            0.0000000000
     28170      9390  TIP3      H2             39.9119294280      -46.0918124159       14.7479436648  W2        9495            0.0000000000
     28171      9391  TIP3      OH2            36.8866094280      -46.3374324159        5.1048836648  W2        9496            0.0000000000
     28172      9391  TIP3      H1             36.6146994280      -46.1083324159        4.2161736648  W2        9496            0.0000000000
     28173      9391  TIP3      H2             36.9321794280      -45.4995524159        5.5654136648  W2        9496            0.0000000000
     28174      9392  TIP3      OH2            50.5115794280      -44.7158424159       11.8177336648  W2        9497            0.0000000000
     28175      9392  TIP3      H1             49.5699494280      -44.6574524159       11.9794236648  W2        9497            0.0000000000
     28176      9392  TIP3      H2             50.7881894280      -43.8097924159       11.6807036648  W2        9497            0.0000000000
     28177      9393  TIP3      OH2            50.8122794280      -56.4293124159       13.2351236648  W2        9498            0.0000000000
     28178      9393  TIP3      H1             50.0761994280      -55.8186024159       13.1972536648  W2        9498            0.0000000000
     28179      9393  TIP3      H2             51.4956794280      -56.0144124159       12.7087636648  W2        9498            0.0000000000
     28180      9394  TIP3      OH2            43.8154194280      -58.3425824159       10.7009236648  W2        9499            0.0000000000
     28181      9394  TIP3      H1             43.6978394280      -59.2909824159       10.6467536648  W2        9499            0.0000000000
     28182      9394  TIP3      H2             42.9604294280      -58.0099724159       10.9740336648  W2        9499            0.0000000000
     28183      9395  TIP3      OH2            48.7636994280      -42.9344924159        8.4428936648  W2        9500            0.0000000000
     28184      9395  TIP3      H1             49.1889294280      -43.6417024159        7.9578536648  W2        9500            0.0000000000
     28185      9395  TIP3      H2             49.0806994280      -42.1332224159        8.0261136648  W2        9500            0.0000000000
     28186      9396  TIP3      OH2            49.9233494280      -45.0336424159        6.9515536648  W2        9501            0.0000000000
     28187      9396  TIP3      H1             49.6658294280      -45.7236324159        6.3401436648  W2        9501            0.0000000000
     28188      9396  TIP3      H2             49.9944294280      -45.4765224159        7.7971436648  W2        9501            0.0000000000
     28189      9397  TIP3      OH2            51.6093694280      -46.4669724159       15.4289036648  W2        9502            0.0000000000
     28190      9397  TIP3      H1             51.7489994280      -47.0587224159       14.6896036648  W2        9502            0.0000000000
     28191      9397  TIP3      H2             51.7766494280      -45.5943824159       15.0727836648  W2        9502            0.0000000000
     28192      9398  TIP3      OH2            46.0819094280      -49.5050224159        5.2015036648  W2        9503            0.0000000000
     28193      9398  TIP3      H1             45.3704594280      -48.9700524159        4.8495536648  W2        9503            0.0000000000
     28194      9398  TIP3      H2             46.7728694280      -49.4498124159        4.5413936648  W2        9503            0.0000000000
     28195      9399  TIP3      OH2            46.1358294280      -51.0475924159        2.2400036648  W2        9504            0.0000000000
     28196      9399  TIP3      H1             46.8368194280      -51.0249024159        2.8914036648  W2        9504            0.0000000000
     28197      9399  TIP3      H2             46.4381194280      -51.6756224159        1.5839336648  W2        9504            0.0000000000
     28198      9400  TIP3      OH2            53.4512994280      -50.1271724159       13.4949436648  W2        9505            0.0000000000
     28199      9400  TIP3      H1             52.7987094280      -49.4326124159       13.5840336648  W2        9505            0.0000000000
     28200      9400  TIP3      H2             53.9163294280      -49.9170824159       12.6851036648  W2        9505            0.0000000000
     28201      9401  TIP3      OH2            49.4876794280      -49.2956924159        6.1530936648  W2        9506            0.0000000000
     28202      9401  TIP3      H1             48.7557794280      -49.0673224159        6.7261536648  W2        9506            0.0000000000
     28203      9401  TIP3      H2             49.9348994280      -50.0094224159        6.6078436648  W2        9506            0.0000000000
     28204      9402  TIP3      OH2            49.3850294280      -51.1214324159       15.2207936648  W2        9507            0.0000000000
     28205      9402  TIP3      H1             49.4649394280      -50.3579924159       15.7926436648  W2        9507            0.0000000000
     28206      9402  TIP3      H2             48.7837994280      -50.8421924159       14.5303036648  W2        9507            0.0000000000
     28207      9403  TIP3      OH2            41.1330494280      -48.6650724159        8.0355936648  W2        9508            0.0000000000
     28208      9403  TIP3      H1             40.8025694280      -49.0357324159        7.2172936648  W2        9508            0.0000000000
     28209      9403  TIP3      H2             41.7214594280      -49.3356724159        8.3824236648  W2        9508            0.0000000000
     28210      9404  TIP3      OH2            42.4997994280      -45.2370124159       10.7168136648  W2        9509            0.0000000000
     28211      9404  TIP3      H1             42.4049294280      -45.8157024159        9.9602736648  W2        9509            0.0000000000
     28212      9404  TIP3      H2             43.2291594280      -45.6084424159       11.2130936648  W2        9509            0.0000000000
     28213      9405  TIP3      OH2            41.4995994280      -49.8965124159       11.6690936648  W2        9510            0.0000000000
     28214      9405  TIP3      H1             42.0648494280      -49.7750924159       10.9062136648  W2        9510            0.0000000000
     28215      9405  TIP3      H2             41.8184894280      -49.2590124159       12.3079436648  W2        9510            0.0000000000
     28216      9406  TIP3      OH2            47.8088194280      -44.3933224159       12.4031436648  W2        9511            0.0000000000
     28217      9406  TIP3      H1             47.5684794280      -43.7310124159       13.0510636648  W2        9511            0.0000000000
     28218      9406  TIP3      H2             47.6106394280      -45.2278024159       12.8281036648  W2        9511            0.0000000000
     28219      9407  TIP3      OH2            42.3796694280      -45.4972424159       16.3862836648  W2        9512            0.0000000000
     28220      9407  TIP3      H1             42.0684194280      -44.7149224159       16.8416036648  W2        9512            0.0000000000
     28221      9407  TIP3      H2             41.7296894280      -45.6503324159       15.7004836648  W2        9512            0.0000000000
     28222      9408  TIP3      OH2            48.3586294280      -50.1334024159        3.8382136648  W2        9513            0.0000000000
     28223      9408  TIP3      H1             48.9381794280      -49.9833724159        4.5851036648  W2        9513            0.0000000000
     28224      9408  TIP3      H2             48.7726294280      -49.6626624159        3.1148536648  W2        9513            0.0000000000
     28225      9409  TIP3      OH2            39.2996594280      -49.2991324159       15.6148536648  W2        9514            0.0000000000
     28226      9409  TIP3      H1             39.3699794280      -48.6484524159       16.3133536648  W2        9514            0.0000000000
     28227      9409  TIP3      H2             38.4088794280      -49.1963824159       15.2799436648  W2        9514            0.0000000000
     28228      9410  TIP3      OH2            46.0851194280      -43.3965524159        7.2735236648  W2        9515            0.0000000000
     28229      9410  TIP3      H1             46.5588794280      -43.1009224159        8.0509436648  W2        9515            0.0000000000
     28230      9410  TIP3      H2             45.5220494280      -42.6583924159        7.0404836648  W2        9515            0.0000000000
     28231      9411  TIP3      OH2            40.6192594280      -43.4257424159       17.1496636648  W2        9516            0.0000000000
     28232      9411  TIP3      H1             40.6267894280      -43.5617724159       16.2022136648  W2        9516            0.0000000000
     28233      9411  TIP3      H2             39.7032994280      -43.5429324159       17.4016636648  W2        9516            0.0000000000
     28234      9412  TIP3      OH2            52.0574694280      -58.3833624159        3.6511836648  W2        9517            0.0000000000
     28235      9412  TIP3      H1             51.1575394280      -58.2444624159        3.9462436648  W2        9517            0.0000000000
     28236      9412  TIP3      H2             52.3093094280      -57.5519024159        3.2493536648  W2        9517            0.0000000000
     28237      9413  TIP3      OH2            40.1233194280      -49.5956424159        5.6248736648  W2        9518            0.0000000000
     28238      9413  TIP3      H1             39.8314494280      -48.8274724159        5.1340036648  W2        9518            0.0000000000
     28239      9413  TIP3      H2             39.4488394280      -50.2550224159        5.4620136648  W2        9518            0.0000000000
     28240      9414  TIP3      OH2            53.2466094280      -44.0171224159        2.0275736648  W2        9519            0.0000000000
     28241      9414  TIP3      H1             53.3199594280      -43.0781024159        2.1981036648  W2        9519            0.0000000000
     28242      9414  TIP3      H2             54.1521194280      -44.3222624159        1.9713036648  W2        9519            0.0000000000
     28243      9415  TIP3      OH2            36.2163294280      -47.2327224159       14.4398536648  W2        9520            0.0000000000
     28244      9415  TIP3      H1             35.7151694280      -47.2607824159       13.6248236648  W2        9520            0.0000000000
     28245      9415  TIP3      H2             36.2216994280      -48.1384024159       14.7495836648  W2        9520            0.0000000000
     28246      9416  TIP3      OH2            35.9665994280      -44.4523424159       11.3238736648  W2        9521            0.0000000000
     28247      9416  TIP3      H1             36.9126594280      -44.5966424159       11.3048236648  W2        9521            0.0000000000
     28248      9416  TIP3      H2             35.8542294280      -43.6680624159       11.8609936648  W2        9521            0.0000000000
     28249      9417  TIP3      OH2            54.1644494280      -43.7863724159       17.0062436648  W2        9522            0.0000000000
     28250      9417  TIP3      H1             54.1151294280      -44.7415624159       16.9690036648  W2        9522            0.0000000000
     28251      9417  TIP3      H2             53.3376794280      -43.5188424159       17.4076236648  W2        9522            0.0000000000
     28252      9418  TIP3      OH2            45.1428494280      -44.2124524159       15.8823836648  W2        9523            0.0000000000
     28253      9418  TIP3      H1             45.2303094280      -43.3859924159       16.3572936648  W2        9523            0.0000000000
     28254      9418  TIP3      H2             44.2793594280      -44.5420724159       16.1313136648  W2        9523            0.0000000000
     28255      9419  TIP3      OH2            45.5574294280      -40.4400824159        5.6884436648  W2        9524            0.0000000000
     28256      9419  TIP3      H1             45.4820294280      -40.5613624159        4.7419636648  W2        9524            0.0000000000
     28257      9419  TIP3      H2             45.5902994280      -39.4908124159        5.8069036648  W2        9524            0.0000000000
     28258      9420  TIP3      OH2            39.2108094280      -41.6513824159        7.4693436648  W2        9525            0.0000000000
     28259      9420  TIP3      H1             39.3628494280      -41.9993424159        8.3479936648  W2        9525            0.0000000000
     28260      9420  TIP3      H2             38.3598494280      -42.0076524159        7.2140636648  W2        9525            0.0000000000
     28261      9421  TIP3      OH2            48.6590294280      -41.2860624159        2.6906836648  W2        9526            0.0000000000
     28262      9421  TIP3      H1             49.0338694280      -42.0304524159        2.2199436648  W2        9526            0.0000000000
     28263      9421  TIP3      H2             48.6633994280      -41.5560024159        3.6090136648  W2        9526            0.0000000000
     28264      9422  TIP3      OH2            48.3278394280      -41.3603524159        5.4399036648  W2        9527            0.0000000000
     28265      9422  TIP3      H1             47.3928194280      -41.2601624159        5.6186036648  W2        9527            0.0000000000
     28266      9422  TIP3      H2             48.6080294280      -42.0697524159        6.0182236648  W2        9527            0.0000000000
     28267      9423  TIP3      OH2            51.3164294280      -52.2931224159       17.4864636648  W2        9528            0.0000000000
     28268      9423  TIP3      H1             50.9091094280      -51.8125624159       16.7657936648  W2        9528            0.0000000000
     28269      9423  TIP3      H2             51.3569994280      -53.1985224159       17.1785436648  W2        9528            0.0000000000
     28270      9424  TIP3      OH2            38.4653794280      -45.9091824159       15.4831336648  W2        9529            0.0000000000
     28271      9424  TIP3      H1             38.6815094280      -46.2706224159       16.3427136648  W2        9529            0.0000000000
     28272      9424  TIP3      H2             37.6098494280      -46.2838024159       15.2734836648  W2        9529            0.0000000000
     28273      9425  TIP3      OH2            41.0841794280      -57.4391324159       11.4785536648  W2        9530            0.0000000000
     28274      9425  TIP3      H1             40.2225494280      -57.5263124159       11.0708436648  W2        9530            0.0000000000
     28275      9425  TIP3      H2             41.0617494280      -56.5831224159       11.9063136648  W2        9530            0.0000000000
     28276      9426  TIP3      OH2            45.7469594280      -57.7170924159       14.8532536648  W2        9531            0.0000000000
     28277      9426  TIP3      H1             46.1672694280      -58.1323824159       15.6063136648  W2        9531            0.0000000000
     28278      9426  TIP3      H2             44.8139194280      -57.8957624159       14.9704536648  W2        9531            0.0000000000
     28279      9427  TIP3      OH2            49.0734494280      -53.9615724159       15.7067036648  W2        9532            0.0000000000
     28280      9427  TIP3      H1             48.5593994280      -54.0873524159       16.5043036648  W2        9532            0.0000000000
     28281      9427  TIP3      H2             48.9179194280      -53.0492624159       15.4623236648  W2        9532            0.0000000000
     28282      9428  TIP3      OH2            49.8359394280      -49.1005724159        1.4680036648  W2        9533            0.0000000000
     28283      9428  TIP3      H1             49.8780194280      -49.3231824159        0.5380036648  W2        9533            0.0000000000
     28284      9428  TIP3      H2             50.6851494280      -48.7018624159        1.6579936648  W2        9533            0.0000000000
     28285      9429  TIP3      OH2            45.4086894280      -55.2247524159        2.1383336648  W2        9534            0.0000000000
     28286      9429  TIP3      H1             45.1551694280      -55.2055924159        3.0611436648  W2        9534            0.0000000000
     28287      9429  TIP3      H2             45.1518994280      -56.0962124159        1.8369536648  W2        9534            0.0000000000
     28288      9430  TIP3      OH2            41.1751894280      -52.4736824159       12.5735736648  W2        9535            0.0000000000
     28289      9430  TIP3      H1             40.5333994280      -52.5139524159       13.2825836648  W2        9535            0.0000000000
     28290      9430  TIP3      H2             41.2123894280      -51.5472124159       12.3358736648  W2        9535            0.0000000000
     28291      9431  TIP3      OH2            41.1720994280      -52.2526724159        7.4855736648  W2        9536            0.0000000000
     28292      9431  TIP3      H1             40.2793894280      -52.5930624159        7.4269536648  W2        9536            0.0000000000
     28293      9431  TIP3      H2             41.6227594280      -52.6295824159        6.7298936648  W2        9536            0.0000000000
     28294      9432  TIP3      OH2            46.7076494280      -51.8366424159        6.3026536648  W2        9537            0.0000000000
     28295      9432  TIP3      H1             46.2986794280      -51.0217824159        6.0111336648  W2        9537            0.0000000000
     28296      9432  TIP3      H2             47.4282694280      -51.9766324159        5.6883636648  W2        9537            0.0000000000
     28297      9433  TIP3      OH2            45.8098094280      -51.6610024159       17.7907236648  W2        9538            0.0000000000
     28298      9433  TIP3      H1             45.2471894280      -52.3658424159       18.1115036648  W2        9538            0.0000000000
     28299      9433  TIP3      H2             46.6361494280      -51.7818124159       18.2584836648  W2        9538            0.0000000000
     28300      9434  TIP3      OH2            47.7124194280      -52.3906024159        9.1166236648  W2        9539            0.0000000000
     28301      9434  TIP3      H1             47.5168694280      -51.7849224159        8.4016836648  W2        9539            0.0000000000
     28302      9434  TIP3      H2             47.8936794280      -53.2240824159        8.6822536648  W2        9539            0.0000000000
     28303      9435  TIP3      OH2            38.9252394280      -52.1533324159       14.4407736648  W2        9540            0.0000000000
     28304      9435  TIP3      H1             38.8871794280      -51.7531724159       15.3094836648  W2        9540            0.0000000000
     28305      9435  TIP3      H2             38.4343494280      -52.9700924159       14.5310636648  W2        9540            0.0000000000
     28306      9436  TIP3      OH2            42.2909794280      -54.7791024159        1.2393736648  W2        9541            0.0000000000
     28307      9436  TIP3      H1             41.8600494280      -55.2240924159        1.9691136648  W2        9541            0.0000000000
     28308      9436  TIP3      H2             41.5728494280      -54.4074724159        0.7271236648  W2        9541            0.0000000000
     28309      9437  TIP3      OH2            35.5333194280      -55.0371524159        8.2912436648  W2        9542            0.0000000000
     28310      9437  TIP3      H1             36.1640894280      -55.0659424159        9.0106336648  W2        9542            0.0000000000
     28311      9437  TIP3      H2             35.9827494280      -55.4622824159        7.5608336648  W2        9542            0.0000000000
     28312      9438  TIP3      OH2            36.8075294280      -54.2909524159        3.7152836648  W2        9543            0.0000000000
     28313      9438  TIP3      H1             37.2816994280      -53.6999624159        3.1303736648  W2        9543            0.0000000000
     28314      9438  TIP3      H2             36.0901694280      -53.7606624159        4.0622936648  W2        9543            0.0000000000
     28315      9439  TIP3      OH2            46.9763394280      -50.7524724159       13.7878636648  W2        9544            0.0000000000
     28316      9439  TIP3      H1             47.2998194280      -51.3835024159       13.1449136648  W2        9544            0.0000000000
     28317      9439  TIP3      H2             46.5362694280      -51.2872524159       14.4486036648  W2        9544            0.0000000000
     28318      9440  TIP3      OH2            43.7536294280      -54.8249224159        8.5719836648  W2        9545            0.0000000000
     28319      9440  TIP3      H1             42.8427394280      -54.7682424159        8.8605836648  W2        9545            0.0000000000
     28320      9440  TIP3      H2             44.2589194280      -54.8853724159        9.3827036648  W2        9545            0.0000000000
     28321      9441  TIP3      OH2            38.5819694280      -53.1962924159        7.3987436648  W2        9546            0.0000000000
     28322      9441  TIP3      H1             37.6927694280      -53.0967424159        7.0587036648  W2        9546            0.0000000000
     28323      9441  TIP3      H2             38.8784594280      -54.0379924159        7.0525336648  W2        9546            0.0000000000
     28324      9442  TIP3      OH2            42.2351494280      -53.1960324159        5.0552036648  W2        9547            0.0000000000
     28325      9442  TIP3      H1             43.1666994280      -53.0670324159        5.2335136648  W2        9547            0.0000000000
     28326      9442  TIP3      H2             42.0201794280      -52.5266024159        4.4056736648  W2        9547            0.0000000000
     28327      9443  TIP3      OH2            48.1588194280      -55.5902924159       11.8361636648  W2        9548            0.0000000000
     28328      9443  TIP3      H1             47.4819794280      -55.4589824159       12.5001336648  W2        9548            0.0000000000
     28329      9443  TIP3      H2             47.6733094280      -55.7453424159       11.0259336648  W2        9548            0.0000000000
     28330      9444  TIP3      OH2            40.9091694280      -52.0018124159        2.6218136648  W2        9549            0.0000000000
     28331      9444  TIP3      H1             40.3666794280      -52.3814324159        1.9305736648  W2        9549            0.0000000000
     28332      9444  TIP3      H2             41.7426594280      -51.8073424159        2.1932236648  W2        9549            0.0000000000
     28333      9445  TIP3      OH2            39.0443094280      -47.4446224159       17.7209736648  W2        9551            0.0000000000
     28334      9445  TIP3      H1             39.7765494280      -47.1900324159       18.2824236648  W2        9551            0.0000000000
     28335      9445  TIP3      H2             38.2641794280      -47.2400824159       18.2365136648  W2        9551            0.0000000000
     28336      9446  TIP3      OH2            45.0735994280      -52.0376224159       10.4589436648  W2        9552            0.0000000000
     28337      9446  TIP3      H1             45.6379394280      -52.5839624159        9.9119036648  W2        9552            0.0000000000
     28338      9446  TIP3      H2             44.9259394280      -52.5594324159       11.2477036648  W2        9552            0.0000000000
     28339      9447  TIP3      OH2            40.0755694280      -55.9010124159        6.8774236648  W2        9553            0.0000000000
     28340      9447  TIP3      H1             39.7585194280      -56.8034824159        6.8419636648  W2        9553            0.0000000000
     28341      9447  TIP3      H2             40.8569794280      -55.8992724159        6.3245836648  W2        9553            0.0000000000
     28342      9448  TIP3      OH2            43.7001894280      -53.6490124159       12.8729836648  W2        9554            0.0000000000
     28343      9448  TIP3      H1             42.8647194280      -53.1950624159       12.9832236648  W2        9554            0.0000000000
     28344      9448  TIP3      H2             44.2242494280      -53.3731624159       13.6249736648  W2        9554            0.0000000000
     28345      9449  TIP3      OH2            44.2444494280      -47.4362424159        4.5576236648  W2        9555            0.0000000000
     28346      9449  TIP3      H1             43.4995494280      -47.9437124159        4.2354136648  W2        9555            0.0000000000
     28347      9449  TIP3      H2             44.1101694280      -47.3874424159        5.5041036648  W2        9555            0.0000000000
     28348      9450  TIP3      OH2            51.3943394280      -48.3034224159       13.3443836648  W2        9556            0.0000000000
     28349      9450  TIP3      H1             52.0362194280      -47.8467924159       12.8006036648  W2        9556            0.0000000000
     28350      9450  TIP3      H2             50.5640294280      -48.1901824159       12.8817936648  W2        9556            0.0000000000
     28351      9451  TIP3      OH2            48.1421294280      -54.6222524159        2.7568836648  W2        9557            0.0000000000
     28352      9451  TIP3      H1             47.2035494280      -54.5106924159        2.6057636648  W2        9557            0.0000000000
     28353      9451  TIP3      H2             48.4393394280      -53.7655624159        3.0634536648  W2        9557            0.0000000000
     28354      9452  TIP3      OH2            45.7636594280      -47.2519124159       15.7945336648  W2        9558            0.0000000000
     28355      9452  TIP3      H1             45.4182694280      -47.6336724159       16.6014936648  W2        9558            0.0000000000
     28356      9452  TIP3      H2             45.5636694280      -46.3185524159       15.8658236648  W2        9558            0.0000000000
     28357      9453  TIP3      OH2            48.8604794280      -52.7549824159        4.4176236648  W2        9559            0.0000000000
     28358      9453  TIP3      H1             49.7523794280      -52.8924824159        4.7367436648  W2        9559            0.0000000000
     28359      9453  TIP3      H2             48.9168394280      -51.9643724159        3.8809736648  W2        9559            0.0000000000
     28360      9454  TIP3      OH2            39.3692794280      -48.1412424159       10.3274136648  W2        9560            0.0000000000
     28361      9454  TIP3      H1             40.1139994280      -48.1436724159        9.7260636648  W2        9560            0.0000000000
     28362      9454  TIP3      H2             39.4469394280      -48.9648624159       10.8089236648  W2        9560            0.0000000000
     28363      9455  TIP3      OH2            46.3698594280      -45.9778124159        3.5830836648  W2        9561            0.0000000000
     28364      9455  TIP3      H1             46.0746994280      -45.1510224159        3.9645636648  W2        9561            0.0000000000
     28365      9455  TIP3      H2             45.6668594280      -46.5971224159        3.7792236648  W2        9561            0.0000000000
     28366      9456  TIP3      OH2            36.3772494280      -49.6805524159       15.6422636648  W2        9562            0.0000000000
     28367      9456  TIP3      H1             36.6001094280      -50.0985924159       16.4740136648  W2        9562            0.0000000000
     28368      9456  TIP3      H2             35.7752594280      -50.2930524159       15.2195436648  W2        9562            0.0000000000
     28369      9457  TIP3      OH2            48.0140194280      -44.7903624159       15.7450336648  W2        9564            0.0000000000
     28370      9457  TIP3      H1             47.1134494280      -44.6071024159       15.4774236648  W2        9564            0.0000000000
     28371      9457  TIP3      H2             48.0481294280      -44.5314324159       16.6659136648  W2        9564            0.0000000000
     28372      9458  TIP3      OH2            53.7453494280      -52.5455724159        4.1122936648  W2        9565            0.0000000000
     28373      9458  TIP3      H1             53.1909794280      -52.9417724159        3.4400436648  W2        9565            0.0000000000
     28374      9458  TIP3      H2             53.8457094280      -51.6350524159        3.8346236648  W2        9565            0.0000000000
     28375      9459  TIP3      OH2            53.7085494280      -46.7454024159       16.9494436648  W2        9566            0.0000000000
     28376      9459  TIP3      H1             52.8573994280      -46.5070224159       16.5820836648  W2        9566            0.0000000000
     28377      9459  TIP3      H2             54.2988894280      -46.7620824159       16.1961536648  W2        9566            0.0000000000
     28378      9460  TIP3      OH2            52.0405194280      -43.7595324159        4.5775036648  W2        9567            0.0000000000
     28379      9460  TIP3      H1             51.6676294280      -44.5851524159        4.8865636648  W2        9567            0.0000000000
     28380      9460  TIP3      H2             52.3178694280      -43.9425924159        3.6798436648  W2        9567            0.0000000000
     28381      9461  TIP3      OH2            49.2009094280      -48.9515824159       11.5986936648  W2        9568            0.0000000000
     28382      9461  TIP3      H1             48.2725994280      -49.1833924159       11.5716236648  W2        9568            0.0000000000
     28383      9461  TIP3      H2             49.6520194280      -49.7286024159       11.2685736648  W2        9568            0.0000000000
     28384      9462  TIP3      OH2            41.7442194280      -44.6234224159        7.7315636648  W2        9569            0.0000000000
     28385      9462  TIP3      H1             42.2714394280      -43.8499824159        7.5314436648  W2        9569            0.0000000000
     28386      9462  TIP3      H2             40.8640694280      -44.3985024159        7.4299636648  W2        9569            0.0000000000
     28387      9463  TIP3      OH2            37.4989894280      -49.7610124159        2.3188036648  W2        9570            0.0000000000
     28388      9463  TIP3      H1             38.1149794280      -49.1342924159        2.6982836648  W2        9570            0.0000000000
     28389      9463  TIP3      H2             36.6372494280      -49.4450324159        2.5904536648  W2        9570            0.0000000000
     28390      9464  TIP3      OH2            43.1714494280      -46.9604324159        7.3079936648  W2        9571            0.0000000000
     28391      9464  TIP3      H1             42.9304494280      -46.0349924159        7.3495236648  W2        9571            0.0000000000
     28392      9464  TIP3      H2             42.4308094280      -47.4193024159        7.7043836648  W2        9571            0.0000000000
     28393      9465  TIP3      OH2            43.6861094280      -42.8110724159       13.6231036648  W2        9572            0.0000000000
     28394      9465  TIP3      H1             44.0485794280      -41.9565124159       13.3895436648  W2        9572            0.0000000000
     28395      9465  TIP3      H2             44.2176294280      -43.1029124159       14.3637336648  W2        9572            0.0000000000
     28396      9466  TIP3      OH2            41.8545294280      -41.9386724159        6.8532136648  W2        9573            0.0000000000
     28397      9466  TIP3      H1             40.9045794280      -41.8329324159        6.9045436648  W2        9573            0.0000000000
     28398      9466  TIP3      H2             42.2063394280      -41.1179324159        7.1979636648  W2        9573            0.0000000000
     28399      9467  TIP3      OH2            47.2301894280      -46.7120024159       13.3236636648  W2        9574            0.0000000000
     28400      9467  TIP3      H1             46.8043194280      -46.9398324159       14.1500636648  W2        9574            0.0000000000
     28401      9467  TIP3      H2             47.8107694280      -47.4508224159       13.1411936648  W2        9574            0.0000000000
     28402      9468  TIP3      OH2            49.4330794280      -45.7829524159        2.3975636648  W2        9575            0.0000000000
     28403      9468  TIP3      H1             49.7863894280      -46.1629724159        3.2019136648  W2        9575            0.0000000000
     28404      9468  TIP3      H2             48.4844294280      -45.8764724159        2.4844936648  W2        9575            0.0000000000
     28405      9469  TIP3      OH2            49.8886094280      -42.1600524159       15.7931436648  W2        9576            0.0000000000
     28406      9469  TIP3      H1             49.2869294280      -42.7157624159       15.2977736648  W2        9576            0.0000000000
     28407      9469  TIP3      H2             50.1699794280      -41.4930724159       15.1668836648  W2        9576            0.0000000000
     28408      9470  TIP3      OH2            53.9365194280      -41.3037024159        2.5985836648  W2        9577            0.0000000000
     28409      9470  TIP3      H1             54.6803094280      -40.7176524159        2.4587436648  W2        9577            0.0000000000
     28410      9470  TIP3      H2             53.2423294280      -40.7351224159        2.9318236648  W2        9577            0.0000000000
     28411      9471  TIP3      OH2            38.0111994280      -54.9272824159       15.2004036648  W2        9578            0.0000000000
     28412      9471  TIP3      H1             37.1184294280      -54.5887424159       15.1328036648  W2        9578            0.0000000000
     28413      9471  TIP3      H2             37.9124794280      -55.7826724159       15.6184836648  W2        9578            0.0000000000
     28414      9472  TIP3      OH2            50.2990094280      -47.1107524159        4.6243536648  W2        9579            0.0000000000
     28415      9472  TIP3      H1             50.0217694280      -47.8388224159        5.1804636648  W2        9579            0.0000000000
     28416      9472  TIP3      H2             51.2263094280      -46.9915524159        4.8296136648  W2        9579            0.0000000000
     28417      9473  TIP3      OH2            37.6623994280      -43.1228424159       13.6353436648  W2        9580            0.0000000000
     28418      9473  TIP3      H1             37.8794294280      -44.0546024159       13.6043136648  W2        9580            0.0000000000
     28419      9473  TIP3      H2             37.9087494280      -42.8483424159       14.5186236648  W2        9580            0.0000000000
     28420      9474  TIP3      OH2            43.5238594280      -44.6713424159        0.8445636648  W2        9581            0.0000000000
     28421      9474  TIP3      H1             43.7628394280      -45.4195324159        0.2974536648  W2        9581            0.0000000000
     28422      9474  TIP3      H2             43.2549894280      -45.0591724159        1.6773436648  W2        9581            0.0000000000
     28423      9475  TIP3      OH2            42.4609194280      -45.1009624159        3.3008236648  W2        9582            0.0000000000
     28424      9475  TIP3      H1             42.6077194280      -45.6209824159        4.0909136648  W2        9582            0.0000000000
     28425      9475  TIP3      H2             42.4580894280      -44.1942024159        3.6074136648  W2        9582            0.0000000000
     28426      9476  TIP3      OH2            38.9140294280      -47.8486324159        3.8113636648  W2        9583            0.0000000000
     28427      9476  TIP3      H1             38.2279594280      -47.4963824159        4.3783336648  W2        9583            0.0000000000
     28428      9476  TIP3      H2             39.4368194280      -47.0856724159        3.5647936648  W2        9583            0.0000000000
     28429      9477  TIP3      OH2            46.7455394280      -55.1862524159       14.0902636648  W2        9584            0.0000000000
     28430      9477  TIP3      H1             47.4443294280      -55.1123824159       14.7402336648  W2        9584            0.0000000000
     28431      9477  TIP3      H2             46.3646794280      -56.0507524159       14.2445536648  W2        9584            0.0000000000
     28432      9478  TIP3      OH2            47.5300294280      -55.5340824159        5.1874936648  W2        9585            0.0000000000
     28433      9478  TIP3      H1             47.7498594280      -55.0625424159        4.3840336648  W2        9585            0.0000000000
     28434      9478  TIP3      H2             48.0884294280      -55.1398224159        5.8575536648  W2        9585            0.0000000000
     28435      9479  TIP3      OH2            45.1986394280      -43.4036024159        4.0502436648  W2        9586            0.0000000000
     28436      9479  TIP3      H1             44.3822494280      -42.9066324159        4.1026736648  W2        9586            0.0000000000
     28437      9479  TIP3      H2             45.7282694280      -42.9282524159        3.4101236648  W2        9586            0.0000000000
     28438      9480  TIP3      OH2            44.7300194280      -53.8062024159        6.0223336648  W2        9587            0.0000000000
     28439      9480  TIP3      H1             45.5422794280      -53.3018824159        6.0685036648  W2        9587            0.0000000000
     28440      9480  TIP3      H2             44.4853194280      -53.9512324159        6.9362936648  W2        9587            0.0000000000
     28441      9481  TIP3      OH2            45.2656594280      -52.8199324159       15.2069936648  W2        9588            0.0000000000
     28442      9481  TIP3      H1             45.3846894280      -52.2463924159       15.9640336648  W2        9588            0.0000000000
     28443      9481  TIP3      H2             45.9211194280      -53.5079924159       15.3217736648  W2        9588            0.0000000000
     28444      9482  TIP3      OH2            45.6136894280      -56.7249024159        6.9604436648  W2        9589            0.0000000000
     28445      9482  TIP3      H1             45.2670394280      -56.1078424159        7.6048736648  W2        9589            0.0000000000
     28446      9482  TIP3      H2             46.2723794280      -56.2243324159        6.4789936648  W2        9589            0.0000000000
     28447      9483  TIP3      OH2            42.5369494280      -42.3598824159        4.0319336648  W2        9590            0.0000000000
     28448      9483  TIP3      H1             42.6978194280      -41.5601324159        3.5311936648  W2        9590            0.0000000000
     28449      9483  TIP3      H2             42.3397294280      -42.0532824159        4.9169936648  W2        9590            0.0000000000
     28450      9484  TIP3      OH2            41.2713894280      -55.6619624159        3.6476936648  W2        9591            0.0000000000
     28451      9484  TIP3      H1             41.1878694280      -54.7736524159        3.9943336648  W2        9591            0.0000000000
     28452      9484  TIP3      H2             42.1614194280      -55.9272924159        3.8793736648  W2        9591            0.0000000000
     28453      9485  TIP3      OH2            51.4702394280      -54.9129024159       16.0419636648  W2        9592            0.0000000000
     28454      9485  TIP3      H1             50.5538194280      -54.6507324159       15.9543336648  W2        9592            0.0000000000
     28455      9485  TIP3      H2             51.8057394280      -54.9160024159       15.1454936648  W2        9592            0.0000000000
     28456      9486  TIP3      OH2            50.0723394280      -51.1628024159       10.1376936648  W2        9593            0.0000000000
     28457      9486  TIP3      H1             49.2747794280      -51.5777824159        9.8091936648  W2        9593            0.0000000000
     28458      9486  TIP3      H2             50.5174494280      -51.8534324159       10.6287436648  W2        9593            0.0000000000
     28459      9487  TIP3      OH2            39.5299194280      -45.2347424159        2.7081436648  W2        9594            0.0000000000
     28460      9487  TIP3      H1             40.1220694280      -44.5352624159        2.9843836648  W2        9594            0.0000000000
     28461      9487  TIP3      H2             39.9892194280      -45.6677924159        1.9886036648  W2        9594            0.0000000000
     28462      9488  TIP3      OH2            37.8458394280      -52.5704424159        1.8240836648  W2        9595            0.0000000000
     28463      9488  TIP3      H1             37.8010994280      -51.6311324159        2.0027836648  W2        9595            0.0000000000
     28464      9488  TIP3      H2             36.9581594280      -52.8059524159        1.5542936648  W2        9595            0.0000000000
     28465      9489  TIP3      OH2            51.1587994280      -41.9065524159       11.7600436648  W2        9596            0.0000000000
     28466      9489  TIP3      H1             51.0032294280      -41.2281124159       11.1029736648  W2        9596            0.0000000000
     28467      9489  TIP3      H2             52.0914394280      -41.8346224159       11.9631036648  W2        9596            0.0000000000
     28468      9490  TIP3      OH2            38.6540394280      -57.7887824159       10.4971836648  W2        9597            0.0000000000
     28469      9490  TIP3      H1             38.4250194280      -57.7295324159        9.5696836648  W2        9597            0.0000000000
     28470      9490  TIP3      H2             38.2113794280      -58.5802324159       10.8035936648  W2        9597            0.0000000000
     28471      9491  TIP3      OH2            37.5843694280      -43.8480724159        6.6577636648  W2        9598            0.0000000000
     28472      9491  TIP3      H1             36.7522294280      -43.3758024159        6.6849036648  W2        9598            0.0000000000
     28473      9491  TIP3      H2             38.1301994280      -43.3383124159        6.0590736648  W2        9598            0.0000000000
     28474      9492  TIP3      OH2            45.5620394280      -42.8082024159        0.9831636648  W2        9601            0.0000000000
     28475      9492  TIP3      H1             44.9181394280      -43.4393424159        1.3045336648  W2        9601            0.0000000000
     28476      9492  TIP3      H2             46.3238694280      -43.3394024159        0.7515136648  W2        9601            0.0000000000
     28477      9493  TIP3      OH2            50.1663294280      -42.9912124159        1.2169636648  W2        9603            0.0000000000
     28478      9493  TIP3      H1             50.4493694280      -43.7856924159        1.6696536648  W2        9603            0.0000000000
     28479      9493  TIP3      H2             50.9061194280      -42.7581124159        0.6560736648  W2        9603            0.0000000000
     28480      9494  TIP3      OH2            41.1210594280      -47.0817224159        1.0744536648  W2        9605            0.0000000000
     28481      9494  TIP3      H1             41.1854694280      -47.8757624159        1.6050936648  W2        9605            0.0000000000
     28482      9494  TIP3      H2             41.7739794280      -47.2004424159        0.3846536648  W2        9605            0.0000000000
     28483      9495  TIP3      OH2            46.4733994280      -46.0345524159        0.8102536648  W2        9607            0.0000000000
     28484      9495  TIP3      H1             46.2048094280      -45.8543424159        1.7111436648  W2        9607            0.0000000000
     28485      9495  TIP3      H2             46.2669594280      -46.9599324159        0.6788336648  W2        9607            0.0000000000
     28486      9496  TIP3      OH2            49.1698194280      -47.5397524159       15.7578636648  W2        9608            0.0000000000
     28487      9496  TIP3      H1             49.9152994280      -46.9513824159       15.6382636648  W2        9608            0.0000000000
     28488      9496  TIP3      H2             48.4124994280      -46.9577824159       15.8211736648  W2        9608            0.0000000000
     28489      9497  TIP3      OH2            42.2704394280      -49.1091024159        3.3802536648  W2        9610            0.0000000000
     28490      9497  TIP3      H1             41.8106394280      -49.5932724159        4.0661036648  W2        9610            0.0000000000
     28491      9497  TIP3      H2             42.5253094280      -49.7775624159        2.7443036648  W2        9610            0.0000000000
     28492      9498  TIP3      OH2            41.5593694280      -51.2163924159       15.7362136648  W2        9611            0.0000000000
     28493      9498  TIP3      H1             40.9409794280      -50.5417324159       16.0166836648  W2        9611            0.0000000000
     28494      9498  TIP3      H2             41.9034894280      -50.8950024159       14.9028336648  W2        9611            0.0000000000
     28495      9499  TIP3      OH2            43.3414794280      -50.8659224159        1.6425736648  W2        9612            0.0000000000
     28496      9499  TIP3      H1             43.1609794280      -51.0208024159        0.7154036648  W2        9612            0.0000000000
     28497      9499  TIP3      H2             44.2915294280      -50.7580524159        1.6873636648  W2        9612            0.0000000000
     28498      9500  TIP3      OH2            52.7313094280      -48.5115024159        1.0883836648  W2        9614            0.0000000000
     28499      9500  TIP3      H1             52.4577894280      -48.9359524159        0.2752136648  W2        9614            0.0000000000
     28500      9500  TIP3      H2             52.7707194280      -47.5800524159        0.8714236648  W2        9614            0.0000000000
     28501      9501  TIP3      OH2            41.8987394280      -53.8613124159       16.8185236648  W2        9615            0.0000000000
     28502      9501  TIP3      H1             42.0488294280      -54.5901824159       16.2164936648  W2        9615            0.0000000000
     28503      9501  TIP3      H2             41.9009794280      -53.0841424159       16.2597436648  W2        9615            0.0000000000
     28504      9502  TIP3      OH2            42.3113094280      -55.4917324159       14.3112636648  W2        9616            0.0000000000
     28505      9502  TIP3      H1             42.8470594280      -55.0400624159       13.6591936648  W2        9616            0.0000000000
     28506      9502  TIP3      H2             41.4592694280      -55.5997524159       13.8886736648  W2        9616            0.0000000000
     28507      9503  TIP3      OH2            43.8931494280      -50.0521124159       14.5507836648  W2        9617            0.0000000000
     28508      9503  TIP3      H1             44.6436294280      -50.2083624159       13.9775636648  W2        9617            0.0000000000
     28509      9503  TIP3      H2             43.5539794280      -49.2004524159       14.2753336648  W2        9617            0.0000000000
     28510      9504  TIP3      OH2            49.6254894280      -49.4484124159       17.6565836648  W2        9619            0.0000000000
     28511      9504  TIP3      H1             49.3439894280      -48.7389524159       17.0789636648  W2        9619            0.0000000000
     28512      9504  TIP3      H2             50.5679194280      -49.5211124159       17.5057036648  W2        9619            0.0000000000
     28513      9505  TIP3      OH2            43.1168594280      -58.0351624159       14.7426236648  W2        9621            0.0000000000
     28514      9505  TIP3      H1             43.0188194280      -57.0888424159       14.6372436648  W2        9621            0.0000000000
     28515      9505  TIP3      H2             42.3744794280      -58.4077824159       14.2669736648  W2        9621            0.0000000000
     28516      9506  TIP3      OH2            47.0965694280      -54.5862724159       17.3818136648  W2        9623            0.0000000000
     28517      9506  TIP3      H1             46.1491094280      -54.5543024159       17.5141436648  W2        9623            0.0000000000
     28518      9506  TIP3      H2             47.4092394280      -55.2115624159       18.0356336648  W2        9623            0.0000000000
     28519      9507  TIP3      OH2            43.3386694280      -58.7414224159       17.4139036648  W2        9626            0.0000000000
     28520      9507  TIP3      H1             44.0505094280      -59.3812024159       17.3998136648  W2        9626            0.0000000000
     28521      9507  TIP3      H2             43.2377094280      -58.4745924159       16.5002136648  W2        9626            0.0000000000
     28522      9508  TIP3      OH2            43.2386494280      -40.1755524159        2.6439336648  W2        9628            0.0000000000
     28523      9508  TIP3      H1             44.1717194280      -40.0176824159        2.7877736648  W2        9628            0.0000000000
     28524      9508  TIP3      H2             42.9745294280      -39.5002524159        2.0190836648  W2        9628            0.0000000000
     28525      9509  TIP3      OH2            36.8071394280      -45.5391724159        2.1267436648  W2        9629            0.0000000000
     28526      9509  TIP3      H1             37.7210594280      -45.4602824159        2.4001336648  W2        9629            0.0000000000
     28527      9509  TIP3      H2             36.8144494280      -46.2262124159        1.4603036648  W2        9629            0.0000000000
     28528      9510  TIP3      OH2            35.4561994280      -40.1463224159        7.2041336648  W2        9630            0.0000000000
     28529      9510  TIP3      H1             34.8089094280      -40.6081524159        6.6712536648  W2        9630            0.0000000000
     28530      9510  TIP3      H2             35.8106594280      -40.8179924159        7.7867536648  W2        9630            0.0000000000
     28531      9511  TIP3      OH2            36.3261194280      -42.0656224159        9.0087536648  W2        9631            0.0000000000
     28532      9511  TIP3      H1             35.9917994280      -42.9458924159        9.1807736648  W2        9631            0.0000000000
     28533      9511  TIP3      H2             36.5483594280      -41.7201224159        9.8733136648  W2        9631            0.0000000000
     28534      9512  TIP3      OH2            53.8745994280      -41.2559824159       11.9892336648  W2        9632            0.0000000000
     28535      9512  TIP3      H1             53.8532694280      -41.0711424159       12.9281736648  W2        9632            0.0000000000
     28536      9512  TIP3      H2             54.5652194280      -40.6875824159       11.6483736648  W2        9632            0.0000000000
     28537      9513  TIP3      OH2            53.4378894280      -41.6888724159       14.9111436648  W2        9633            0.0000000000
     28538      9513  TIP3      H1             52.9507594280      -42.4244624159       14.5398836648  W2        9633            0.0000000000
     28539      9513  TIP3      H2             53.9871594280      -42.0824824159       15.5890836648  W2        9633            0.0000000000
     28540      9514  TIP3      OH2            53.1895894280      -47.6426924159        5.0634236648  W2        9635            0.0000000000
     28541      9514  TIP3      H1             54.0397294280      -47.2216024159        5.1905836648  W2        9635            0.0000000000
     28542      9514  TIP3      H2             53.1950994280      -48.3826824159        5.6705636648  W2        9635            0.0000000000
     28543      9515  TIP3      OH2            53.5841494280      -49.5889524159        6.8869936648  W2        9636            0.0000000000
     28544      9515  TIP3      H1             52.8576094280      -50.0686924159        7.2847536648  W2        9636            0.0000000000
     28545      9515  TIP3      H2             54.1654794280      -49.3834824159        7.6191536648  W2        9636            0.0000000000
     28546      9516  TIP3      OH2            53.3432694280      -46.8042024159       11.8347536648  W2        9637            0.0000000000
     28547      9516  TIP3      H1             54.1766894280      -47.1822024159       11.5541136648  W2        9637            0.0000000000
     28548      9516  TIP3      H2             53.4552994280      -45.8610824159       11.7156636648  W2        9637            0.0000000000
     28549      9517  TIP3      OH2            51.8294994280      -43.9264524159       14.1415936648  W2        9638            0.0000000000
     28550      9517  TIP3      H1             51.1820294280      -43.6013024159       14.7671136648  W2        9638            0.0000000000
     28551      9517  TIP3      H2             51.3118994280      -44.3666824159       13.4674236648  W2        9638            0.0000000000
     28552      9518  TIP3      OH2            53.8524594280      -49.6881024159        3.2781236648  W2        9639            0.0000000000
     28553      9518  TIP3      H1             53.3305694280      -49.3316924159        2.5592136648  W2        9639            0.0000000000
     28554      9518  TIP3      H2             53.8193794280      -49.0133224159        3.9562136648  W2        9639            0.0000000000
     28555      9519  TIP3      OH2            52.2013594280      -52.4485424159        1.8288336648  W2        9640            0.0000000000
     28556      9519  TIP3      H1             52.2977994280      -51.7818424159        1.1488036648  W2        9640            0.0000000000
     28557      9519  TIP3      H2             52.0613194280      -53.2639124159        1.3473836648  W2        9640            0.0000000000
     28558      9520  TIP3      OH2            51.3708294280      -51.0683024159        7.4498636648  W2        9641            0.0000000000
     28559      9520  TIP3      H1             51.2207094280      -52.0134424159        7.4296436648  W2        9641            0.0000000000
     28560      9520  TIP3      H2             51.0172794280      -50.7871624159        8.2937736648  W2        9641            0.0000000000
     28561      9521  TIP3      OH2            36.4060694280      -48.9900824159       11.4602436648  W2        9642            0.0000000000
     28562      9521  TIP3      H1             36.5903594280      -49.0719124159       10.5245336648  W2        9642            0.0000000000
     28563      9521  TIP3      H2             37.2553594280      -49.1143824159       11.8838836648  W2        9642            0.0000000000
     28564      9522  TIP3      OH2            52.2271194280      -49.0979724159       17.0886936648  W2        9643            0.0000000000
     28565      9522  TIP3      H1             52.8098494280      -49.8327424159       17.2804136648  W2        9643            0.0000000000
     28566      9522  TIP3      H2             52.7910494280      -48.3259424159       17.1352736648  W2        9643            0.0000000000
     28567      9523  TIP3      OH2            53.7238294280      -51.1953924159       17.7732336648  W2        9644            0.0000000000
     28568      9523  TIP3      H1             52.8604994280      -51.5741824159       17.6077036648  W2        9644            0.0000000000
     28569      9523  TIP3      H2             54.3281994280      -51.9339124159       17.6988136648  W2        9644            0.0000000000
     28570      9524  TIP3      OH2            51.4487394280      -55.0405624159        0.9463836648  W2        9645            0.0000000000
     28571      9524  TIP3      H1             52.0593194280      -55.4118824159        1.5832036648  W2        9645            0.0000000000
     28572      9524  TIP3      H2             50.6118894280      -55.4618724159        1.1423836648  W2        9645            0.0000000000
     28573      9525  TIP3      OH2            51.0813094280      -53.4857224159        5.9123736648  W2        9646            0.0000000000
     28574      9525  TIP3      H1             51.3610194280      -54.3926824159        6.0365436648  W2        9646            0.0000000000
     28575      9525  TIP3      H2             51.8404794280      -53.0515724159        5.5232936648  W2        9646            0.0000000000
     28576      9526  TIP3      OH2            51.6931394280      -52.9039824159       11.3482636648  W2        9647            0.0000000000
     28577      9526  TIP3      H1             52.6259394280      -52.6919924159       11.3138636648  W2        9647            0.0000000000
     28578      9526  TIP3      H2             51.4578894280      -52.8027724159       12.2705636648  W2        9647            0.0000000000
     28579      9527  TIP3      OH2            51.7223294280      -52.1674524159       14.1242036648  W2        9648            0.0000000000
     28580      9527  TIP3      H1             50.8794594280      -51.8994124159       14.4901836648  W2        9648            0.0000000000
     28581      9527  TIP3      H2             52.1647594280      -51.3452624159       13.9133136648  W2        9648            0.0000000000
     28582      9528  TIP3      OH2            36.0035494280      -53.7195824159       17.6011236648  W2        9649            0.0000000000
     28583      9528  TIP3      H1             36.9230394280      -53.8417524159       17.8374336648  W2        9649            0.0000000000
     28584      9528  TIP3      H2             35.5539994280      -54.4696124159       17.9904736648  W2        9649            0.0000000000
     28585      9529  TIP3      OH2            51.6947894280      -56.2227924159        5.9605736648  W2        9651            0.0000000000
     28586      9529  TIP3      H1             51.8772894280      -56.6716424159        6.7860736648  W2        9651            0.0000000000
     28587      9529  TIP3      H2             51.0950794280      -56.8073524159        5.4970336648  W2        9651            0.0000000000
     28588      9530  TIP3      OH2            37.2247994280      -55.4074224159       10.4924136648  W2        9652            0.0000000000
     28589      9530  TIP3      H1             37.6699594280      -56.1991724159       10.7943836648  W2        9652            0.0000000000
     28590      9530  TIP3      H2             37.6910994280      -54.6909024159       10.9229736648  W2        9652            0.0000000000
     28591      9531  TIP3      OH2            35.5288294280      -52.4081224159       11.5614336648  W2        9653            0.0000000000
     28592      9531  TIP3      H1             36.0208094280      -52.6290724159       10.7706336648  W2        9653            0.0000000000
     28593      9531  TIP3      H2             35.8909194280      -51.5677824159       11.8423836648  W2        9653            0.0000000000
     28594      9532  TIP3      OH2            53.5614094280      -56.1549824159        2.4886036648  W2        9655            0.0000000000
     28595      9532  TIP3      H1             53.9736694280      -56.8764124159        2.0134036648  W2        9655            0.0000000000
     28596      9532  TIP3      H2             54.2430594280      -55.4855224159        2.5470336648  W2        9655            0.0000000000
     28597      9533  TIP3      OH2            35.8424794280      -56.1502124159        5.6156736648  W2        9656            0.0000000000
     28598      9533  TIP3      H1             34.9173194280      -55.9415524159        5.4862236648  W2        9656            0.0000000000
     28599      9533  TIP3      H2             36.2964694280      -55.6661324159        4.9259036648  W2        9656            0.0000000000
     28600      9534  TIP3      OH2            50.6131994280      -41.1660424159        7.5614136648  W2        9657            0.0000000000
     28601      9534  TIP3      H1             51.2654894280      -41.5138324159        6.9533236648  W2        9657            0.0000000000
     28602      9534  TIP3      H2             51.1235794280      -40.6777224159        8.2073836648  W2        9657            0.0000000000
     28603      9535  TIP3      OH2            35.8060194280      -57.4123124159       13.9599236648  W2        9658            0.0000000000
     28604      9535  TIP3      H1             35.1410694280      -57.6582824159       14.6030136648  W2        9658            0.0000000000
     28605      9535  TIP3      H2             35.3631494280      -56.7902724159       13.3827236648  W2        9658            0.0000000000
     28606      9536  TIP3      OH2            40.9522394280      -43.2627824159       14.3629036648  W2        9660            0.0000000000
     28607      9536  TIP3      H1             40.5273494280      -42.4529324159       14.0803636648  W2        9660            0.0000000000
     28608      9536  TIP3      H2             41.8565194280      -43.1773724159       14.0608836648  W2        9660            0.0000000000
     28609      9537  TIP3      OH2            45.2633794280      -41.8637824159       17.3222736648  W2        9661            0.0000000000
     28610      9537  TIP3      H1             45.4481294280      -42.1971724159       18.2003036648  W2        9661            0.0000000000
     28611      9537  TIP3      H2             46.1098294280      -41.5539224159       17.0001936648  W2        9661            0.0000000000
     28612      9538  TIP3      OH2            47.6084194280      -40.5778924159       16.5664136648  W2        9662            0.0000000000
     28613      9538  TIP3      H1             48.2853094280      -41.2106624159       16.3263336648  W2        9662            0.0000000000
     28614      9538  TIP3      H2             47.9302994280      -40.1768424159       17.3737436648  W2        9662            0.0000000000
     28615      9539  TIP3      OH2            52.5257994280      -57.9883424159       15.6459136648  W2        9663            0.0000000000
     28616      9539  TIP3      H1             51.7131494280      -57.6633124159       15.2583836648  W2        9663            0.0000000000
     28617      9539  TIP3      H2             52.7586494280      -58.7484924159       15.1128236648  W2        9663            0.0000000000
     28618      9540  TIP3      OH2            38.3539094280      -40.0063924159       14.4104336648  W2        9664            0.0000000000
     28619      9540  TIP3      H1             37.6335494280      -39.5662924159       13.9592036648  W2        9664            0.0000000000
     28620      9540  TIP3      H2             37.9883094280      -40.2569224159       15.2588336648  W2        9664            0.0000000000
     28621      9541  TIP3      OH2            40.8211694280      -40.4060024159       13.4401536648  W2        9665            0.0000000000
     28622      9541  TIP3      H1             39.9563894280      -40.3341524159       13.8441636648  W2        9665            0.0000000000
     28623      9541  TIP3      H2             40.7660694280      -39.8592724159       12.6564036648  W2        9665            0.0000000000
     28624      9542  TIP3      OH2            45.5317294280      -40.5181124159       12.6157536648  W2        9666            0.0000000000
     28625      9542  TIP3      H1             45.0751294280      -39.9891424159       11.9615936648  W2        9666            0.0000000000
     28626      9542  TIP3      H2             45.6945294280      -39.9149724159       13.3409836648  W2        9666            0.0000000000
     28627      9543  TIP3      OH2            47.8593594280      -41.6401524159       13.5607836648  W2        9667            0.0000000000
     28628      9543  TIP3      H1             46.9547294280      -41.4751324159       13.2949936648  W2        9667            0.0000000000
     28629      9543  TIP3      H2             48.2882194280      -40.7869324159       13.4951236648  W2        9667            0.0000000000
     28630      9544  TIP3      OH2            50.4635494280      -40.0702424159       13.8555636648  W2        9668            0.0000000000
     28631      9544  TIP3      H1             50.2817494280      -39.1543524159       13.6450536648  W2        9668            0.0000000000
     28632      9544  TIP3      H2             50.6403294280      -40.4805324159       13.0090236648  W2        9668            0.0000000000
     28633      9545  TIP3      OH2            37.7687194280      -41.3831424159       11.3206136648  W2        9669            0.0000000000
     28634      9545  TIP3      H1             37.7503194280      -41.8086324159       12.1778436648  W2        9669            0.0000000000
     28635      9545  TIP3      H2             38.5735094280      -41.7016424159       10.9118336648  W2        9669            0.0000000000
     28636      9546  TIP3      OH2            39.9100294280      -42.6732724159        9.9756036648  W2        9670            0.0000000000
     28637      9546  TIP3      H1             39.6910994280      -43.5895324159       10.1452036648  W2        9670            0.0000000000
     28638      9546  TIP3      H2             40.7342494280      -42.5332324159       10.4417436648  W2        9670            0.0000000000
     28639      9547  TIP3      OH2            42.4472794280      -42.2033424159       10.8244036648  W2        9671            0.0000000000
     28640      9547  TIP3      H1             42.6598494280      -43.0914424159       10.5374936648  W2        9671            0.0000000000
     28641      9547  TIP3      H2             42.5117894280      -42.2375724159       11.7788036648  W2        9671            0.0000000000
     28642      9548  TIP3      OH2            45.9556494280      -56.5392824159        9.9687336648  W2        9672            0.0000000000
     28643      9548  TIP3      H1             45.2813294280      -57.1687224159       10.2243136648  W2        9672            0.0000000000
     28644      9548  TIP3      H2             46.5195694280      -57.0233924159        9.3655236648  W2        9672            0.0000000000
     28645      9549  TIP3      OH2            51.0983694280      -58.4318824159       10.0814436648  W2        9673            0.0000000000
     28646      9549  TIP3      H1             51.7021294280      -57.8843424159        9.5795436648  W2        9673            0.0000000000
     28647      9549  TIP3      H2             50.2285694280      -58.1128424159        9.8408536648  W2        9673            0.0000000000
     28648      9550  TIP3      OH2            52.8254094280      -57.2930124159        8.4145336648  W2        9674            0.0000000000
     28649      9550  TIP3      H1             53.4371594280      -57.8074424159        7.8878936648  W2        9674            0.0000000000
     28650      9550  TIP3      H2             53.2077494280      -56.4158024159        8.4379736648  W2        9674            0.0000000000
     28651      9551  TIP3      OH2            38.2823994280      -57.9052524159        7.7907236648  W2        9675            0.0000000000
     28652      9551  TIP3      H1             37.5053794280      -58.1397624159        7.2833136648  W2        9675            0.0000000000
     28653      9551  TIP3      H2             38.8127594280      -58.7020424159        7.7995236648  W2        9675            0.0000000000
     28654      9552  TIP3      OH2            37.1187394280      -58.1074424159        3.5943336648  W2        9676            0.0000000000
     28655      9552  TIP3      H1             37.5578094280      -57.4963924159        3.0026836648  W2        9676            0.0000000000
     28656      9552  TIP3      H2             36.4849794280      -57.5690324159        4.0683336648  W2        9676            0.0000000000
     28657      9553  TIP3      OH2            42.8616594280      -57.9785424159        7.6040336648  W2        9677            0.0000000000
     28658      9553  TIP3      H1             43.7359994280      -57.5901124159        7.5744636648  W2        9677            0.0000000000
     28659      9553  TIP3      H2             42.7257394280      -58.1937624159        8.5267536648  W2        9677            0.0000000000
     28660      9554  TIP3      OH2            48.4184994280      -57.9485624159        9.2532036648  W2        9678            0.0000000000
     28661      9554  TIP3      H1             48.4946594280      -57.8534024159        8.3038036648  W2        9678            0.0000000000
     28662      9554  TIP3      H2             48.1434194280      -58.8562724159        9.3821136648  W2        9678            0.0000000000
     28663      9555  TIP3      OH2            49.7717594280      -57.9227824159        4.9457036648  W2        9679            0.0000000000
     28664      9555  TIP3      H1             49.0688694280      -57.3078624159        4.7358436648  W2        9679            0.0000000000
     28665      9555  TIP3      H2             49.3268994280      -58.7601124159        5.0767936648  W2        9679            0.0000000000
     28666      9556  TIP3      OH2            37.0196894280      -42.1592224159        4.4918436648  W2        9680            0.0000000000
     28667      9556  TIP3      H1             36.3346794280      -42.1973324159        3.8243536648  W2        9680            0.0000000000
     28668      9556  TIP3      H2             37.0234094280      -41.2464624159        4.7800536648  W2        9680            0.0000000000
     28669      9557  TIP3      OH2            38.9796494280      -56.1912924159        2.0367436648  W2        9681            0.0000000000
     28670      9557  TIP3      H1             39.4709894280      -56.8210524159        1.5092936648  W2        9681            0.0000000000
     28671      9557  TIP3      H2             39.6032794280      -55.8953524159        2.6998636648  W2        9681            0.0000000000
     28672      9558  TIP3      OH2            44.0056594280      -55.8981424159        4.4937936648  W2        9682            0.0000000000
     28673      9558  TIP3      H1             44.1837894280      -56.5448224159        5.1766536648  W2        9682            0.0000000000
     28674      9558  TIP3      H2             43.9522794280      -55.0643724159        4.9609036648  W2        9682            0.0000000000
     28675      9559  TIP3      OH2            45.8840394280      -40.9497324159        2.8894636648  W2        9683            0.0000000000
     28676      9559  TIP3      H1             46.7500594280      -40.5829924159        2.7112836648  W2        9683            0.0000000000
     28677      9559  TIP3      H2             45.6373194280      -41.3889324159        2.0755436648  W2        9683            0.0000000000
     28678      9560  TIP3      OH2            52.5929994280      -41.3867024159        5.5685736648  W2        9684            0.0000000000
     28679      9560  TIP3      H1             52.3987094280      -42.1344924159        5.0035336648  W2        9684            0.0000000000
     28680      9560  TIP3      H2             52.5540094280      -40.6286924159        4.9853636648  W2        9684            0.0000000000
     28681      9561  TIP3      OH2            38.2401994280      -57.3910624159       17.3083436648  W2        9685            0.0000000000
     28682      9561  TIP3      H1             37.8740194280      -58.1568024159       17.7508136648  W2        9685            0.0000000000
     28683      9561  TIP3      H2             39.1530494280      -57.3620424159       17.5948536648  W2        9685            0.0000000000
     28684      9562  TIP3      OH2            38.8378094280      -41.2391424159        1.5170536648  W2        9687            0.0000000000
     28685      9562  TIP3      H1             38.5702694280      -40.9528524159        2.3903636648  W2        9687            0.0000000000
     28686      9562  TIP3      H2             39.6090694280      -41.7852224159        1.6693036648  W2        9687            0.0000000000
     28687      9563  TIP3      OH2            51.8106194280      -42.6354624159       17.7187536648  W2        9689            0.0000000000
     28688      9563  TIP3      H1             51.0288094280      -42.8216624159       17.1988136648  W2        9689            0.0000000000
     28689      9563  TIP3      H2             51.7386094280      -41.7060324159       17.9360036648  W2        9689            0.0000000000
     28690      9564  TIP3      OH2            57.5182894280      -49.8797424159       12.7612836648  W2        9690            0.0000000000
     28691      9564  TIP3      H1             57.5594994280      -50.5054124159       13.4845236648  W2        9690            0.0000000000
     28692      9564  TIP3      H2             58.2210594280      -49.2558824159       12.9433236648  W2        9690            0.0000000000
     28693      9565  TIP3      OH2            58.4415994280      -45.4298524159       11.2961936648  W2        9691            0.0000000000
     28694      9565  TIP3      H1             58.0721194280      -46.2318024159       10.9266236648  W2        9691            0.0000000000
     28695      9565  TIP3      H2             59.3827094280      -45.5983624159       11.3425336648  W2        9691            0.0000000000
     28696      9566  TIP3      OH2            55.0516494280      -51.7695924159        6.6890736648  W2        9692            0.0000000000
     28697      9566  TIP3      H1             54.6039894280      -50.9237224159        6.6707236648  W2        9692            0.0000000000
     28698      9566  TIP3      H2             54.4907694280      -52.3491724159        6.1735836648  W2        9692            0.0000000000
     28699      9567  TIP3      OH2            55.7622594280      -49.6076324159        8.8148736648  W2        9693            0.0000000000
     28700      9567  TIP3      H1             55.9756094280      -50.3774724159        9.3421736648  W2        9693            0.0000000000
     28701      9567  TIP3      H2             56.5000194280      -49.5179624159        8.2116336648  W2        9693            0.0000000000
     28702      9568  TIP3      OH2            56.4549094280      -52.1693524159        9.9364936648  W2        9694            0.0000000000
     28703      9568  TIP3      H1             57.1085694280      -52.7191824159       10.3685036648  W2        9694            0.0000000000
     28704      9568  TIP3      H2             56.4788394280      -52.4434524159        9.0196936648  W2        9694            0.0000000000
     28705      9569  TIP3      OH2            58.2386794280      -53.7559124159       11.2006536648  W2        9695            0.0000000000
     28706      9569  TIP3      H1             58.8523094280      -53.1231524159       11.5738936648  W2        9695            0.0000000000
     28707      9569  TIP3      H2             58.7507494280      -54.2284124159       10.5443436648  W2        9695            0.0000000000
     28708      9570  TIP3      OH2            55.7426094280      -46.3374324159        5.1048836648  W2        9696            0.0000000000
     28709      9570  TIP3      H1             55.4706994280      -46.1083324159        4.2161736648  W2        9696            0.0000000000
     28710      9570  TIP3      H2             55.7881794280      -45.4995524159        5.5654136648  W2        9696            0.0000000000
     28711      9571  TIP3      OH2            58.1556594280      -49.2991324159       15.6148536648  W2        9697            0.0000000000
     28712      9571  TIP3      H1             58.2259794280      -48.6484524159       16.3133536648  W2        9697            0.0000000000
     28713      9571  TIP3      H2             57.2648794280      -49.1963824159       15.2799436648  W2        9697            0.0000000000
     28714      9572  TIP3      OH2            55.0723294280      -47.2327224159       14.4398536648  W2        9698            0.0000000000
     28715      9572  TIP3      H1             54.5711694280      -47.2607824159       13.6248236648  W2        9698            0.0000000000
     28716      9572  TIP3      H2             55.0776994280      -48.1384024159       14.7495836648  W2        9698            0.0000000000
     28717      9573  TIP3      OH2            54.8225994280      -44.4523424159       11.3238736648  W2        9699            0.0000000000
     28718      9573  TIP3      H1             55.7686594280      -44.5966424159       11.3048236648  W2        9699            0.0000000000
     28719      9573  TIP3      H2             54.7102294280      -43.6680624159       11.8609936648  W2        9699            0.0000000000
     28720      9574  TIP3      OH2            58.0668094280      -41.6513824159        7.4693436648  W2        9700            0.0000000000
     28721      9574  TIP3      H1             58.2188494280      -41.9993424159        8.3479936648  W2        9700            0.0000000000
     28722      9574  TIP3      H2             57.2158494280      -42.0076524159        7.2140636648  W2        9700            0.0000000000
     28723      9575  TIP3      OH2            57.3213794280      -45.9091824159       15.4831336648  W2        9701            0.0000000000
     28724      9575  TIP3      H1             57.5375094280      -46.2706224159       16.3427136648  W2        9701            0.0000000000
     28725      9575  TIP3      H2             56.4658494280      -46.2838024159       15.2734836648  W2        9701            0.0000000000
     28726      9576  TIP3      OH2            57.7812394280      -52.1533324159       14.4407736648  W2        9702            0.0000000000
     28727      9576  TIP3      H1             57.7431794280      -51.7531724159       15.3094836648  W2        9702            0.0000000000
     28728      9576  TIP3      H2             57.2903494280      -52.9700924159       14.5310636648  W2        9702            0.0000000000
     28729      9577  TIP3      OH2            54.3893194280      -55.0371524159        8.2912436648  W2        9703            0.0000000000
     28730      9577  TIP3      H1             55.0200894280      -55.0659424159        9.0106336648  W2        9703            0.0000000000
     28731      9577  TIP3      H2             54.8387494280      -55.4622824159        7.5608336648  W2        9703            0.0000000000
     28732      9578  TIP3      OH2            55.6635294280      -54.2909524159        3.7152836648  W2        9704            0.0000000000
     28733      9578  TIP3      H1             56.1376994280      -53.6999624159        3.1303736648  W2        9704            0.0000000000
     28734      9578  TIP3      H2             54.9461694280      -53.7606624159        4.0622936648  W2        9704            0.0000000000
     28735      9579  TIP3      OH2            57.4379694280      -53.1962924159        7.3987436648  W2        9705            0.0000000000
     28736      9579  TIP3      H1             56.5487694280      -53.0967424159        7.0587036648  W2        9705            0.0000000000
     28737      9579  TIP3      H2             57.7344594280      -54.0379924159        7.0525336648  W2        9705            0.0000000000
     28738      9580  TIP3      OH2            57.9003094280      -47.4446224159       17.7209736648  W2        9706            0.0000000000
     28739      9580  TIP3      H1             58.6325494280      -47.1900324159       18.2824236648  W2        9706            0.0000000000
     28740      9580  TIP3      H2             57.1201794280      -47.2400824159       18.2365136648  W2        9706            0.0000000000
     28741      9581  TIP3      OH2            58.2252794280      -48.1412424159       10.3274136648  W2        9707            0.0000000000
     28742      9581  TIP3      H1             58.9699994280      -48.1436724159        9.7260636648  W2        9707            0.0000000000
     28743      9581  TIP3      H2             58.3029394280      -48.9648624159       10.8089236648  W2        9707            0.0000000000
     28744      9582  TIP3      OH2            55.2332494280      -49.6805524159       15.6422636648  W2        9708            0.0000000000
     28745      9582  TIP3      H1             55.4561094280      -50.0985924159       16.4740136648  W2        9708            0.0000000000
     28746      9582  TIP3      H2             54.6312594280      -50.2930524159       15.2195436648  W2        9708            0.0000000000
     28747      9583  TIP3      OH2            56.3549894280      -49.7610124159        2.3188036648  W2        9709            0.0000000000
     28748      9583  TIP3      H1             56.9709794280      -49.1342924159        2.6982836648  W2        9709            0.0000000000
     28749      9583  TIP3      H2             55.4932494280      -49.4450324159        2.5904536648  W2        9709            0.0000000000
     28750      9584  TIP3      OH2            56.8671994280      -54.9272824159       15.2004036648  W2        9710            0.0000000000
     28751      9584  TIP3      H1             55.9744294280      -54.5887424159       15.1328036648  W2        9710            0.0000000000
     28752      9584  TIP3      H2             56.7684794280      -55.7826724159       15.6184836648  W2        9710            0.0000000000
     28753      9585  TIP3      OH2            56.5183994280      -43.1228424159       13.6353436648  W2        9711            0.0000000000
     28754      9585  TIP3      H1             56.7354294280      -44.0546024159       13.6043136648  W2        9711            0.0000000000
     28755      9585  TIP3      H2             56.7647494280      -42.8483424159       14.5186236648  W2        9711            0.0000000000
     28756      9586  TIP3      OH2            57.7700294280      -47.8486324159        3.8113636648  W2        9712            0.0000000000
     28757      9586  TIP3      H1             57.0839594280      -47.4963824159        4.3783336648  W2        9712            0.0000000000
     28758      9586  TIP3      H2             58.2928194280      -47.0856724159        3.5647936648  W2        9712            0.0000000000
     28759      9587  TIP3      OH2            58.3859194280      -45.2347424159        2.7081436648  W2        9713            0.0000000000
     28760      9587  TIP3      H1             58.9780694280      -44.5352624159        2.9843836648  W2        9713            0.0000000000
     28761      9587  TIP3      H2             58.8452194280      -45.6677924159        1.9886036648  W2        9713            0.0000000000
     28762      9588  TIP3      OH2            56.7018394280      -52.5704424159        1.8240836648  W2        9714            0.0000000000
     28763      9588  TIP3      H1             56.6570994280      -51.6311324159        2.0027836648  W2        9714            0.0000000000
     28764      9588  TIP3      H2             55.8141594280      -52.8059524159        1.5542936648  W2        9714            0.0000000000
     28765      9589  TIP3      OH2            57.5100394280      -57.7887824159       10.4971836648  W2        9715            0.0000000000
     28766      9589  TIP3      H1             57.2810194280      -57.7295324159        9.5696836648  W2        9715            0.0000000000
     28767      9589  TIP3      H2             57.0673794280      -58.5802324159       10.8035936648  W2        9715            0.0000000000
     28768      9590  TIP3      OH2            56.4403694280      -43.8480724159        6.6577636648  W2        9716            0.0000000000
     28769      9590  TIP3      H1             55.6082294280      -43.3758024159        6.6849036648  W2        9716            0.0000000000
     28770      9590  TIP3      H2             56.9861994280      -43.3383124159        6.0590736648  W2        9716            0.0000000000
     28771      9591  TIP3      OH2            55.6631394280      -45.5391724159        2.1267436648  W2        9721            0.0000000000
     28772      9591  TIP3      H1             56.5770594280      -45.4602824159        2.4001336648  W2        9721            0.0000000000
     28773      9591  TIP3      H2             55.6704494280      -46.2262124159        1.4603036648  W2        9721            0.0000000000
     28774      9592  TIP3      OH2            54.3121994280      -40.1463224159        7.2041336648  W2        9722            0.0000000000
     28775      9592  TIP3      H1             53.6649094280      -40.6081524159        6.6712536648  W2        9722            0.0000000000
     28776      9592  TIP3      H2             54.6666594280      -40.8179924159        7.7867536648  W2        9722            0.0000000000
     28777      9593  TIP3      OH2            55.1821194280      -42.0656224159        9.0087536648  W2        9723            0.0000000000
     28778      9593  TIP3      H1             54.8477994280      -42.9458924159        9.1807736648  W2        9723            0.0000000000
     28779      9593  TIP3      H2             55.4043594280      -41.7201224159        9.8733136648  W2        9723            0.0000000000
     28780      9594  TIP3      OH2            55.2620694280      -48.9900824159       11.4602436648  W2        9724            0.0000000000
     28781      9594  TIP3      H1             55.4463594280      -49.0719124159       10.5245336648  W2        9724            0.0000000000
     28782      9594  TIP3      H2             56.1113594280      -49.1143824159       11.8838836648  W2        9724            0.0000000000
     28783      9595  TIP3      OH2            54.8595494280      -53.7195824159       17.6011236648  W2        9725            0.0000000000
     28784      9595  TIP3      H1             55.7790394280      -53.8417524159       17.8374336648  W2        9725            0.0000000000
     28785      9595  TIP3      H2             54.4099994280      -54.4696124159       17.9904736648  W2        9725            0.0000000000
     28786      9596  TIP3      OH2            56.0807994280      -55.4074224159       10.4924136648  W2        9726            0.0000000000
     28787      9596  TIP3      H1             56.5259594280      -56.1991724159       10.7943836648  W2        9726            0.0000000000
     28788      9596  TIP3      H2             56.5470994280      -54.6909024159       10.9229736648  W2        9726            0.0000000000
     28789      9597  TIP3      OH2            54.3848294280      -52.4081224159       11.5614336648  W2        9727            0.0000000000
     28790      9597  TIP3      H1             54.8768094280      -52.6290724159       10.7706336648  W2        9727            0.0000000000
     28791      9597  TIP3      H2             54.7469194280      -51.5677824159       11.8423836648  W2        9727            0.0000000000
     28792      9598  TIP3      OH2            54.6984794280      -56.1502124159        5.6156736648  W2        9728            0.0000000000
     28793      9598  TIP3      H1             53.7733194280      -55.9415524159        5.4862236648  W2        9728            0.0000000000
     28794      9598  TIP3      H2             55.1524694280      -55.6661324159        4.9259036648  W2        9728            0.0000000000
     28795      9599  TIP3      OH2            54.6620194280      -57.4123124159       13.9599236648  W2        9729            0.0000000000
     28796      9599  TIP3      H1             53.9970694280      -57.6582824159       14.6030136648  W2        9729            0.0000000000
     28797      9599  TIP3      H2             54.2191494280      -56.7902724159       13.3827236648  W2        9729            0.0000000000
     28798      9600  TIP3      OH2            57.2099094280      -40.0063924159       14.4104336648  W2        9731            0.0000000000
     28799      9600  TIP3      H1             56.4895494280      -39.5662924159       13.9592036648  W2        9731            0.0000000000
     28800      9600  TIP3      H2             56.8443094280      -40.2569224159       15.2588336648  W2        9731            0.0000000000
     28801      9601  TIP3      OH2            56.6247194280      -41.3831424159       11.3206136648  W2        9732            0.0000000000
     28802      9601  TIP3      H1             56.6063194280      -41.8086324159       12.1778436648  W2        9732            0.0000000000
     28803      9601  TIP3      H2             57.4295094280      -41.7016424159       10.9118336648  W2        9732            0.0000000000
     28804      9602  TIP3      OH2            57.1383994280      -57.9052524159        7.7907236648  W2        9733            0.0000000000
     28805      9602  TIP3      H1             56.3613794280      -58.1397624159        7.2833136648  W2        9733            0.0000000000
     28806      9602  TIP3      H2             57.6687594280      -58.7020424159        7.7995236648  W2        9733            0.0000000000
     28807      9603  TIP3      OH2            55.9747394280      -58.1074424159        3.5943336648  W2        9734            0.0000000000
     28808      9603  TIP3      H1             56.4138094280      -57.4963924159        3.0026836648  W2        9734            0.0000000000
     28809      9603  TIP3      H2             55.3409794280      -57.5690324159        4.0683336648  W2        9734            0.0000000000
     28810      9604  TIP3      OH2            55.8756894280      -42.1592224159        4.4918436648  W2        9735            0.0000000000
     28811      9604  TIP3      H1             55.1906794280      -42.1973324159        3.8243536648  W2        9735            0.0000000000
     28812      9604  TIP3      H2             55.8794094280      -41.2464624159        4.7800536648  W2        9735            0.0000000000
     28813      9605  TIP3      OH2            57.8356494280      -56.1912924159        2.0367436648  W2        9736            0.0000000000
     28814      9605  TIP3      H1             58.3269894280      -56.8210524159        1.5092936648  W2        9736            0.0000000000
     28815      9605  TIP3      H2             58.4592794280      -55.8953524159        2.6998636648  W2        9736            0.0000000000
     28816      9606  TIP3      OH2            57.0961994280      -57.3910624159       17.3083436648  W2        9737            0.0000000000
     28817      9606  TIP3      H1             56.7300194280      -58.1568024159       17.7508136648  W2        9737            0.0000000000
     28818      9606  TIP3      H2             58.0090494280      -57.3620424159       17.5948536648  W2        9737            0.0000000000
     28819      9607  TIP3      OH2            57.6938094280      -41.2391424159        1.5170536648  W2        9738            0.0000000000
     28820      9607  TIP3      H1             57.4262694280      -40.9528524159        2.3903636648  W2        9738            0.0000000000
     28821      9607  TIP3      H2             58.4650694280      -41.7852224159        1.6693036648  W2        9738            0.0000000000
     28822      9608  TIP3      OH2           -46.9193405720      -29.8930224159        7.7494736648  W2        9739            0.0000000000
     28823      9608  TIP3      H1            -46.8302305720      -28.9492024159        7.6171836648  W2        9739            0.0000000000
     28824      9608  TIP3      H2            -47.5575805720      -30.1683824159        7.0914136648  W2        9739            0.0000000000
     28825      9609  TIP3      OH2           -47.9862105720      -30.6379524159       11.1682936648  W2        9740            0.0000000000
     28826      9609  TIP3      H1            -48.0244605720      -31.2843224159       11.8732536648  W2        9740            0.0000000000
     28827      9609  TIP3      H2            -48.3085605720      -31.1045124159       10.3971636648  W2        9740            0.0000000000
     28828      9610  TIP3      OH2           -55.6177105720      -31.0237424159       12.7612836648  W2        9741            0.0000000000
     28829      9610  TIP3      H1            -55.5765005720      -31.6494124159       13.4845236648  W2        9741            0.0000000000
     28830      9610  TIP3      H2            -54.9149405720      -30.3998824159       12.9433236648  W2        9741            0.0000000000
     28831      9611  TIP3      OH2           -44.2801905720      -27.6989124159        9.4698036648  W2        9742            0.0000000000
     28832      9611  TIP3      H1            -44.7209205720      -28.4193124159        9.9203636648  W2        9742            0.0000000000
     28833      9611  TIP3      H2            -44.2932205720      -26.9781924159       10.0995736648  W2        9742            0.0000000000
     28834      9612  TIP3      OH2           -54.6944005720      -26.5738524159       11.2961936648  W2        9743            0.0000000000
     28835      9612  TIP3      H1            -55.0638805720      -27.3758024159       10.9266236648  W2        9743            0.0000000000
     28836      9612  TIP3      H2            -53.7532905720      -26.7423624159       11.3425336648  W2        9743            0.0000000000
     28837      9613  TIP3      OH2           -58.0843505720      -32.9135924159        6.6890736648  W2        9744            0.0000000000
     28838      9613  TIP3      H1            -58.5320105720      -32.0677224159        6.6707236648  W2        9744            0.0000000000
     28839      9613  TIP3      H2            -58.6452305720      -33.4931724159        6.1735836648  W2        9744            0.0000000000
     28840      9614  TIP3      OH2           -57.3737405720      -30.7516324159        8.8148736648  W2        9745            0.0000000000
     28841      9614  TIP3      H1            -57.1603905720      -31.5214724159        9.3421736648  W2        9745            0.0000000000
     28842      9614  TIP3      H2            -56.6359805720      -30.6619624159        8.2116336648  W2        9745            0.0000000000
     28843      9615  TIP3      OH2           -47.1686405720      -22.5947424159        9.6818436648  W2        9746            0.0000000000
     28844      9615  TIP3      H1            -46.5490005720      -23.2712724159        9.4087636648  W2        9746            0.0000000000
     28845      9615  TIP3      H2            -47.3769005720      -22.8126624159       10.5903336648  W2        9746            0.0000000000
     28846      9616  TIP3      OH2           -49.5967705720      -28.2058124159       11.5743936648  W2        9747            0.0000000000
     28847      9616  TIP3      H1            -49.2929805720      -28.8916724159       10.9798036648  W2        9747            0.0000000000
     28848      9616  TIP3      H2            -48.8753705720      -28.0869424159       12.1921936648  W2        9747            0.0000000000
     28849      9617  TIP3      OH2           -40.9337905720      -36.6042824159       12.4350136648  W2        9748            0.0000000000
     28850      9617  TIP3      H1            -40.8845705720      -35.9941624159       13.1709236648  W2        9748            0.0000000000
     28851      9617  TIP3      H2            -40.5082805720      -36.1431924159       11.7121236648  W2        9748            0.0000000000
     28852      9618  TIP3      OH2           -46.4560705720      -33.8115724159       11.9018736648  W2        9749            0.0000000000
     28853      9618  TIP3      H1            -46.3134805720      -34.7578724159       11.9220336648  W2        9749            0.0000000000
     28854      9618  TIP3      H2            -46.5621705720      -33.6045924159       10.9733636648  W2        9749            0.0000000000
     28855      9619  TIP3      OH2           -53.3012405720      -35.7099324159        9.1743536648  W2        9750            0.0000000000
     28856      9619  TIP3      H1            -53.2581305720      -34.8500824159        8.7559836648  W2        9750            0.0000000000
     28857      9619  TIP3      H2            -53.7588305720      -36.2624624159        8.5406736648  W2        9750            0.0000000000
     28858      9620  TIP3      OH2           -45.5789705720      -35.5793724159        7.5751836648  W2        9751            0.0000000000
     28859      9620  TIP3      H1            -44.9325405720      -35.9080524159        8.1999436648  W2        9751            0.0000000000
     28860      9620  TIP3      H2            -45.0690305720      -35.0614724159        6.9523236648  W2        9751            0.0000000000
     28861      9621  TIP3      OH2           -56.6810905720      -33.3133524159        9.9364936648  W2        9752            0.0000000000
     28862      9621  TIP3      H1            -56.0274305720      -33.8631824159       10.3685036648  W2        9752            0.0000000000
     28863      9621  TIP3      H2            -56.6571605720      -33.5874524159        9.0196936648  W2        9752            0.0000000000
     28864      9622  TIP3      OH2           -51.5246405720      -31.7632224159        9.1516436648  W2        9753            0.0000000000
     28865      9622  TIP3      H1            -50.9085405720      -32.2896824159        9.6610436648  W2        9753            0.0000000000
     28866      9622  TIP3      H2            -52.1107605720      -32.4033524159        8.7480036648  W2        9753            0.0000000000
     28867      9623  TIP3      OH2           -40.5423305720      -35.1263624159       14.6709936648  W2        9754            0.0000000000
     28868      9623  TIP3      H1            -41.2308705720      -34.4682924159       14.5756536648  W2        9754            0.0000000000
     28869      9623  TIP3      H2            -40.5268705720      -35.3235724159       15.6075336648  W2        9754            0.0000000000
     28870      9624  TIP3      OH2           -54.4910505720      -36.7920924159       13.2484336648  W2        9755            0.0000000000
     28871      9624  TIP3      H1            -54.7098805720      -36.2620324159       12.4820336648  W2        9755            0.0000000000
     28872      9624  TIP3      H2            -55.1589605720      -36.5655424159       13.8955736648  W2        9755            0.0000000000
     28873      9625  TIP3      OH2           -47.1220705720      -27.2919824159        6.7923436648  W2        9756            0.0000000000
     28874      9625  TIP3      H1            -47.4175605720      -27.6147524159        5.9410336648  W2        9756            0.0000000000
     28875      9625  TIP3      H2            -47.4462905720      -26.3923124159        6.8336036648  W2        9756            0.0000000000
     28876      9626  TIP3      OH2           -51.9219105720      -29.1165224159       13.5358036648  W2        9757            0.0000000000
     28877      9626  TIP3      H1            -52.6620005720      -28.5183724159       13.6393236648  W2        9757            0.0000000000
     28878      9626  TIP3      H2            -51.2079605720      -28.5625624159       13.2201636648  W2        9757            0.0000000000
     28879      9627  TIP3      OH2           -43.8151305720      -36.2884424159        9.5557736648  W2        9758            0.0000000000
     28880      9627  TIP3      H1            -44.0303305720      -37.0541024159       10.0883736648  W2        9758            0.0000000000
     28881      9627  TIP3      H2            -43.1593905720      -35.8159824159       10.0686236648  W2        9758            0.0000000000
     28882      9628  TIP3      OH2           -54.8973205720      -34.8999124159       11.2006536648  W2        9759            0.0000000000
     28883      9628  TIP3      H1            -54.2836905720      -34.2671524159       11.5738936648  W2        9759            0.0000000000
     28884      9628  TIP3      H2            -54.3852505720      -35.3724124159       10.5443436648  W2        9759            0.0000000000
     28885      9629  TIP3      OH2           -53.5144805720      -27.1522224159       14.3229536648  W2        9760            0.0000000000
     28886      9629  TIP3      H1            -53.5197205720      -26.2728724159       13.9448836648  W2        9760            0.0000000000
     28887      9629  TIP3      H2            -54.3680705720      -27.2358124159       14.7479436648  W2        9760            0.0000000000
     28888      9630  TIP3      OH2           -57.3933905720      -27.4814324159        5.1048836648  W2        9761            0.0000000000
     28889      9630  TIP3      H1            -57.6653005720      -27.2523324159        4.2161736648  W2        9761            0.0000000000
     28890      9630  TIP3      H2            -57.3478205720      -26.6435524159        5.5654136648  W2        9761            0.0000000000
     28891      9631  TIP3      OH2           -43.7684205720      -25.8598424159       11.8177336648  W2        9762            0.0000000000
     28892      9631  TIP3      H1            -44.7100505720      -25.8014524159       11.9794236648  W2        9762            0.0000000000
     28893      9631  TIP3      H2            -43.4918105720      -24.9537924159       11.6807036648  W2        9762            0.0000000000
     28894      9632  TIP3      OH2           -43.4677205720      -37.5733124159       13.2351236648  W2        9763            0.0000000000
     28895      9632  TIP3      H1            -44.2038005720      -36.9626024159       13.1972536648  W2        9763            0.0000000000
     28896      9632  TIP3      H2            -42.7843205720      -37.1584124159       12.7087636648  W2        9763            0.0000000000
     28897      9633  TIP3      OH2           -50.4645805720      -39.4865824159       10.7009236648  W2        9764            0.0000000000
     28898      9633  TIP3      H1            -50.5821605720      -40.4349824159       10.6467536648  W2        9764            0.0000000000
     28899      9633  TIP3      H2            -51.3195705720      -39.1539724159       10.9740336648  W2        9764            0.0000000000
     28900      9634  TIP3      OH2           -45.5163005720      -24.0784924159        8.4428936648  W2        9765            0.0000000000
     28901      9634  TIP3      H1            -45.0910705720      -24.7857024159        7.9578536648  W2        9765            0.0000000000
     28902      9634  TIP3      H2            -45.1993005720      -23.2772224159        8.0261136648  W2        9765            0.0000000000
     28903      9635  TIP3      OH2           -44.3566505720      -26.1776424159        6.9515536648  W2        9766            0.0000000000
     28904      9635  TIP3      H1            -44.6141705720      -26.8676324159        6.3401436648  W2        9766            0.0000000000
     28905      9635  TIP3      H2            -44.2855705720      -26.6205224159        7.7971436648  W2        9766            0.0000000000
     28906      9636  TIP3      OH2           -42.6706305720      -27.6109724159       15.4289036648  W2        9767            0.0000000000
     28907      9636  TIP3      H1            -42.5310005720      -28.2027224159       14.6896036648  W2        9767            0.0000000000
     28908      9636  TIP3      H2            -42.5033505720      -26.7383824159       15.0727836648  W2        9767            0.0000000000
     28909      9637  TIP3      OH2           -48.1980905720      -30.6490224159        5.2015036648  W2        9768            0.0000000000
     28910      9637  TIP3      H1            -48.9095405720      -30.1140524159        4.8495536648  W2        9768            0.0000000000
     28911      9637  TIP3      H2            -47.5071305720      -30.5938124159        4.5413936648  W2        9768            0.0000000000
     28912      9638  TIP3      OH2           -48.1441705720      -32.1915924159        2.2400036648  W2        9769            0.0000000000
     28913      9638  TIP3      H1            -47.4431805720      -32.1689024159        2.8914036648  W2        9769            0.0000000000
     28914      9638  TIP3      H2            -47.8418805720      -32.8196224159        1.5839336648  W2        9769            0.0000000000
     28915      9639  TIP3      OH2           -40.8287005720      -31.2711724159       13.4949436648  W2        9770            0.0000000000
     28916      9639  TIP3      H1            -41.4812905720      -30.5766124159       13.5840336648  W2        9770            0.0000000000
     28917      9639  TIP3      H2            -40.3636705720      -31.0610824159       12.6851036648  W2        9770            0.0000000000
     28918      9640  TIP3      OH2           -44.7923205720      -30.4396924159        6.1530936648  W2        9771            0.0000000000
     28919      9640  TIP3      H1            -45.5242205720      -30.2113224159        6.7261536648  W2        9771            0.0000000000
     28920      9640  TIP3      H2            -44.3451005720      -31.1534224159        6.6078436648  W2        9771            0.0000000000
     28921      9641  TIP3      OH2           -44.8949705720      -32.2654324159       15.2207936648  W2        9772            0.0000000000
     28922      9641  TIP3      H1            -44.8150605720      -31.5019924159       15.7926436648  W2        9772            0.0000000000
     28923      9641  TIP3      H2            -45.4962005720      -31.9861924159       14.5303036648  W2        9772            0.0000000000
     28924      9642  TIP3      OH2           -53.1469505720      -29.8090724159        8.0355936648  W2        9773            0.0000000000
     28925      9642  TIP3      H1            -53.4774305720      -30.1797324159        7.2172936648  W2        9773            0.0000000000
     28926      9642  TIP3      H2            -52.5585405720      -30.4796724159        8.3824236648  W2        9773            0.0000000000
     28927      9643  TIP3      OH2           -51.7802005720      -26.3810124159       10.7168136648  W2        9774            0.0000000000
     28928      9643  TIP3      H1            -51.8750705720      -26.9597024159        9.9602736648  W2        9774            0.0000000000
     28929      9643  TIP3      H2            -51.0508405720      -26.7524424159       11.2130936648  W2        9774            0.0000000000
     28930      9644  TIP3      OH2           -52.7804005720      -31.0405124159       11.6690936648  W2        9775            0.0000000000
     28931      9644  TIP3      H1            -52.2151505720      -30.9190924159       10.9062136648  W2        9775            0.0000000000
     28932      9644  TIP3      H2            -52.4615105720      -30.4030124159       12.3079436648  W2        9775            0.0000000000
     28933      9645  TIP3      OH2           -46.4711805720      -25.5373224159       12.4031436648  W2        9776            0.0000000000
     28934      9645  TIP3      H1            -46.7115205720      -24.8750124159       13.0510636648  W2        9776            0.0000000000
     28935      9645  TIP3      H2            -46.6693605720      -26.3718024159       12.8281036648  W2        9776            0.0000000000
     28936      9646  TIP3      OH2           -51.9003305720      -26.6412424159       16.3862836648  W2        9777            0.0000000000
     28937      9646  TIP3      H1            -52.2115805720      -25.8589224159       16.8416036648  W2        9777            0.0000000000
     28938      9646  TIP3      H2            -52.5503105720      -26.7943324159       15.7004836648  W2        9777            0.0000000000
     28939      9647  TIP3      OH2           -45.9213705720      -31.2774024159        3.8382136648  W2        9778            0.0000000000
     28940      9647  TIP3      H1            -45.3418205720      -31.1273724159        4.5851036648  W2        9778            0.0000000000
     28941      9647  TIP3      H2            -45.5073705720      -30.8066624159        3.1148536648  W2        9778            0.0000000000
     28942      9648  TIP3      OH2           -54.9803405720      -30.4431324159       15.6148536648  W2        9779            0.0000000000
     28943      9648  TIP3      H1            -54.9100205720      -29.7924524159       16.3133536648  W2        9779            0.0000000000
     28944      9648  TIP3      H2            -55.8711205720      -30.3403824159       15.2799436648  W2        9779            0.0000000000
     28945      9649  TIP3      OH2           -48.1948805720      -24.5405524159        7.2735236648  W2        9780            0.0000000000
     28946      9649  TIP3      H1            -47.7211205720      -24.2449224159        8.0509436648  W2        9780            0.0000000000
     28947      9649  TIP3      H2            -48.7579505720      -23.8023924159        7.0404836648  W2        9780            0.0000000000
     28948      9650  TIP3      OH2           -53.6607405720      -24.5697424159       17.1496636648  W2        9781            0.0000000000
     28949      9650  TIP3      H1            -53.6532105720      -24.7057724159       16.2022136648  W2        9781            0.0000000000
     28950      9650  TIP3      H2            -54.5767005720      -24.6869324159       17.4016636648  W2        9781            0.0000000000
     28951      9651  TIP3      OH2           -42.2225305720      -39.5273624159        3.6511836648  W2        9782            0.0000000000
     28952      9651  TIP3      H1            -43.1224605720      -39.3884624159        3.9462436648  W2        9782            0.0000000000
     28953      9651  TIP3      H2            -41.9706905720      -38.6959024159        3.2493536648  W2        9782            0.0000000000
     28954      9652  TIP3      OH2           -54.1566805720      -30.7396424159        5.6248736648  W2        9783            0.0000000000
     28955      9652  TIP3      H1            -54.4485505720      -29.9714724159        5.1340036648  W2        9783            0.0000000000
     28956      9652  TIP3      H2            -54.8311605720      -31.3990224159        5.4620136648  W2        9783            0.0000000000
     28957      9653  TIP3      OH2           -41.0333905720      -25.1611224159        2.0275736648  W2        9784            0.0000000000
     28958      9653  TIP3      H1            -40.9600405720      -24.2221024159        2.1981036648  W2        9784            0.0000000000
     28959      9653  TIP3      H2            -40.1278805720      -25.4662624159        1.9713036648  W2        9784            0.0000000000
     28960      9654  TIP3      OH2           -58.0636705720      -28.3767224159       14.4398536648  W2        9785            0.0000000000
     28961      9654  TIP3      H1            -58.5648305720      -28.4047824159       13.6248236648  W2        9785            0.0000000000
     28962      9654  TIP3      H2            -58.0583005720      -29.2824024159       14.7495836648  W2        9785            0.0000000000
     28963      9655  TIP3      OH2           -58.3134005720      -25.5963424159       11.3238736648  W2        9786            0.0000000000
     28964      9655  TIP3      H1            -57.3673405720      -25.7406424159       11.3048236648  W2        9786            0.0000000000
     28965      9655  TIP3      H2            -58.4257705720      -24.8120624159       11.8609936648  W2        9786            0.0000000000
     28966      9656  TIP3      OH2           -40.1155505720      -24.9303724159       17.0062436648  W2        9787            0.0000000000
     28967      9656  TIP3      H1            -40.1648705720      -25.8855624159       16.9690036648  W2        9787            0.0000000000
     28968      9656  TIP3      H2            -40.9423205720      -24.6628424159       17.4076236648  W2        9787            0.0000000000
     28969      9657  TIP3      OH2           -49.1371505720      -25.3564524159       15.8823836648  W2        9788            0.0000000000
     28970      9657  TIP3      H1            -49.0496905720      -24.5299924159       16.3572936648  W2        9788            0.0000000000
     28971      9657  TIP3      H2            -50.0006405720      -25.6860724159       16.1313136648  W2        9788            0.0000000000
     28972      9658  TIP3      OH2           -48.7225705720      -21.5840824159        5.6884436648  W2        9789            0.0000000000
     28973      9658  TIP3      H1            -48.7979705720      -21.7053624159        4.7419636648  W2        9789            0.0000000000
     28974      9658  TIP3      H2            -48.6897005720      -20.6348124159        5.8069036648  W2        9789            0.0000000000
     28975      9659  TIP3      OH2           -55.0691905720      -22.7953824159        7.4693436648  W2        9790            0.0000000000
     28976      9659  TIP3      H1            -54.9171505720      -23.1433424159        8.3479936648  W2        9790            0.0000000000
     28977      9659  TIP3      H2            -55.9201505720      -23.1516524159        7.2140636648  W2        9790            0.0000000000
     28978      9660  TIP3      OH2           -45.6209705720      -22.4300624159        2.6906836648  W2        9791            0.0000000000
     28979      9660  TIP3      H1            -45.2461305720      -23.1744524159        2.2199436648  W2        9791            0.0000000000
     28980      9660  TIP3      H2            -45.6166005720      -22.7000024159        3.6090136648  W2        9791            0.0000000000
     28981      9661  TIP3      OH2           -45.9521605720      -22.5043524159        5.4399036648  W2        9792            0.0000000000
     28982      9661  TIP3      H1            -46.8871805720      -22.4041624159        5.6186036648  W2        9792            0.0000000000
     28983      9661  TIP3      H2            -45.6719705720      -23.2137524159        6.0182236648  W2        9792            0.0000000000
     28984      9662  TIP3      OH2           -42.9635705720      -33.4371224159       17.4864636648  W2        9793            0.0000000000
     28985      9662  TIP3      H1            -43.3708905720      -32.9565624159       16.7657936648  W2        9793            0.0000000000
     28986      9662  TIP3      H2            -42.9230005720      -34.3425224159       17.1785436648  W2        9793            0.0000000000
     28987      9663  TIP3      OH2           -55.8146205720      -27.0531824159       15.4831336648  W2        9794            0.0000000000
     28988      9663  TIP3      H1            -55.5984905720      -27.4146224159       16.3427136648  W2        9794            0.0000000000
     28989      9663  TIP3      H2            -56.6701505720      -27.4278024159       15.2734836648  W2        9794            0.0000000000
     28990      9664  TIP3      OH2           -53.1958205720      -38.5831324159       11.4785536648  W2        9795            0.0000000000
     28991      9664  TIP3      H1            -54.0574505720      -38.6703124159       11.0708436648  W2        9795            0.0000000000
     28992      9664  TIP3      H2            -53.2182505720      -37.7271224159       11.9063136648  W2        9795            0.0000000000
     28993      9665  TIP3      OH2           -48.5330405720      -38.8610924159       14.8532536648  W2        9796            0.0000000000
     28994      9665  TIP3      H1            -48.1127305720      -39.2763824159       15.6063136648  W2        9796            0.0000000000
     28995      9665  TIP3      H2            -49.4660805720      -39.0397624159       14.9704536648  W2        9796            0.0000000000
     28996      9666  TIP3      OH2           -45.2065505720      -35.1055724159       15.7067036648  W2        9797            0.0000000000
     28997      9666  TIP3      H1            -45.7206005720      -35.2313524159       16.5043036648  W2        9797            0.0000000000
     28998      9666  TIP3      H2            -45.3620805720      -34.1932624159       15.4623236648  W2        9797            0.0000000000
     28999      9667  TIP3      OH2           -44.4440605720      -30.2445724159        1.4680036648  W2        9798            0.0000000000
     29000      9667  TIP3      H1            -44.4019805720      -30.4671824159        0.5380036648  W2        9798            0.0000000000
     29001      9667  TIP3      H2            -43.5948505720      -29.8458624159        1.6579936648  W2        9798            0.0000000000
     29002      9668  TIP3      OH2           -48.8713105720      -36.3687524159        2.1383336648  W2        9799            0.0000000000
     29003      9668  TIP3      H1            -49.1248305720      -36.3495924159        3.0611436648  W2        9799            0.0000000000
     29004      9668  TIP3      H2            -49.1281005720      -37.2402124159        1.8369536648  W2        9799            0.0000000000
     29005      9669  TIP3      OH2           -53.1048105720      -33.6176824159       12.5735736648  W2        9800            0.0000000000
     29006      9669  TIP3      H1            -53.7466005720      -33.6579524159       13.2825836648  W2        9800            0.0000000000
     29007      9669  TIP3      H2            -53.0676105720      -32.6912124159       12.3358736648  W2        9800            0.0000000000
     29008      9670  TIP3      OH2           -53.1079005720      -33.3966724159        7.4855736648  W2        9801            0.0000000000
     29009      9670  TIP3      H1            -54.0006105720      -33.7370624159        7.4269536648  W2        9801            0.0000000000
     29010      9670  TIP3      H2            -52.6572405720      -33.7735824159        6.7298936648  W2        9801            0.0000000000
     29011      9671  TIP3      OH2           -47.5723505720      -32.9806424159        6.3026536648  W2        9802            0.0000000000
     29012      9671  TIP3      H1            -47.9813205720      -32.1657824159        6.0111336648  W2        9802            0.0000000000
     29013      9671  TIP3      H2            -46.8517305720      -33.1206324159        5.6883636648  W2        9802            0.0000000000
     29014      9672  TIP3      OH2           -48.4701905720      -32.8050024159       17.7907236648  W2        9803            0.0000000000
     29015      9672  TIP3      H1            -49.0328105720      -33.5098424159       18.1115036648  W2        9803            0.0000000000
     29016      9672  TIP3      H2            -47.6438505720      -32.9258124159       18.2584836648  W2        9803            0.0000000000
     29017      9673  TIP3      OH2           -46.5675805720      -33.5346024159        9.1166236648  W2        9804            0.0000000000
     29018      9673  TIP3      H1            -46.7631305720      -32.9289224159        8.4016836648  W2        9804            0.0000000000
     29019      9673  TIP3      H2            -46.3863205720      -34.3680824159        8.6822536648  W2        9804            0.0000000000
     29020      9674  TIP3      OH2           -55.3547605720      -33.2973324159       14.4407736648  W2        9805            0.0000000000
     29021      9674  TIP3      H1            -55.3928205720      -32.8971724159       15.3094836648  W2        9805            0.0000000000
     29022      9674  TIP3      H2            -55.8456505720      -34.1140924159       14.5310636648  W2        9805            0.0000000000
     29023      9675  TIP3      OH2           -51.9890205720      -35.9231024159        1.2393736648  W2        9806            0.0000000000
     29024      9675  TIP3      H1            -52.4199505720      -36.3680924159        1.9691136648  W2        9806            0.0000000000
     29025      9675  TIP3      H2            -52.7071505720      -35.5514724159        0.7271236648  W2        9806            0.0000000000
     29026      9676  TIP3      OH2           -58.7466805720      -36.1811524159        8.2912436648  W2        9807            0.0000000000
     29027      9676  TIP3      H1            -58.1159105720      -36.2099424159        9.0106336648  W2        9807            0.0000000000
     29028      9676  TIP3      H2            -58.2972505720      -36.6062824159        7.5608336648  W2        9807            0.0000000000
     29029      9677  TIP3      OH2           -57.4724705720      -35.4349524159        3.7152836648  W2        9808            0.0000000000
     29030      9677  TIP3      H1            -56.9983005720      -34.8439624159        3.1303736648  W2        9808            0.0000000000
     29031      9677  TIP3      H2            -58.1898305720      -34.9046624159        4.0622936648  W2        9808            0.0000000000
     29032      9678  TIP3      OH2           -47.3036605720      -31.8964724159       13.7878636648  W2        9809            0.0000000000
     29033      9678  TIP3      H1            -46.9801805720      -32.5275024159       13.1449136648  W2        9809            0.0000000000
     29034      9678  TIP3      H2            -47.7437305720      -32.4312524159       14.4486036648  W2        9809            0.0000000000
     29035      9679  TIP3      OH2           -50.5263705720      -35.9689224159        8.5719836648  W2        9810            0.0000000000
     29036      9679  TIP3      H1            -51.4372605720      -35.9122424159        8.8605836648  W2        9810            0.0000000000
     29037      9679  TIP3      H2            -50.0210805720      -36.0293724159        9.3827036648  W2        9810            0.0000000000
     29038      9680  TIP3      OH2           -55.6980305720      -34.3402924159        7.3987436648  W2        9811            0.0000000000
     29039      9680  TIP3      H1            -56.5872305720      -34.2407424159        7.0587036648  W2        9811            0.0000000000
     29040      9680  TIP3      H2            -55.4015405720      -35.1819924159        7.0525336648  W2        9811            0.0000000000
     29041      9681  TIP3      OH2           -52.0448505720      -34.3400324159        5.0552036648  W2        9812            0.0000000000
     29042      9681  TIP3      H1            -51.1133005720      -34.2110324159        5.2335136648  W2        9812            0.0000000000
     29043      9681  TIP3      H2            -52.2598205720      -33.6706024159        4.4056736648  W2        9812            0.0000000000
     29044      9682  TIP3      OH2           -46.1211805720      -36.7342924159       11.8361636648  W2        9813            0.0000000000
     29045      9682  TIP3      H1            -46.7980205720      -36.6029824159       12.5001336648  W2        9813            0.0000000000
     29046      9682  TIP3      H2            -46.6066905720      -36.8893424159       11.0259336648  W2        9813            0.0000000000
     29047      9683  TIP3      OH2           -53.3708305720      -33.1458124159        2.6218136648  W2        9814            0.0000000000
     29048      9683  TIP3      H1            -53.9133205720      -33.5254324159        1.9305736648  W2        9814            0.0000000000
     29049      9683  TIP3      H2            -52.5373405720      -32.9513424159        2.1932236648  W2        9814            0.0000000000
     29050      9684  TIP3      OH2           -55.2356905720      -28.5886224159       17.7209736648  W2        9816            0.0000000000
     29051      9684  TIP3      H1            -54.5034505720      -28.3340324159       18.2824236648  W2        9816            0.0000000000
     29052      9684  TIP3      H2            -56.0158205720      -28.3840824159       18.2365136648  W2        9816            0.0000000000
     29053      9685  TIP3      OH2           -49.2064005720      -33.1816224159       10.4589436648  W2        9817            0.0000000000
     29054      9685  TIP3      H1            -48.6420605720      -33.7279624159        9.9119036648  W2        9817            0.0000000000
     29055      9685  TIP3      H2            -49.3540605720      -33.7034324159       11.2477036648  W2        9817            0.0000000000
     29056      9686  TIP3      OH2           -54.2044305720      -37.0450124159        6.8774236648  W2        9818            0.0000000000
     29057      9686  TIP3      H1            -54.5214805720      -37.9474824159        6.8419636648  W2        9818            0.0000000000
     29058      9686  TIP3      H2            -53.4230205720      -37.0432724159        6.3245836648  W2        9818            0.0000000000
     29059      9687  TIP3      OH2           -50.5798105720      -34.7930124159       12.8729836648  W2        9819            0.0000000000
     29060      9687  TIP3      H1            -51.4152805720      -34.3390624159       12.9832236648  W2        9819            0.0000000000
     29061      9687  TIP3      H2            -50.0557505720      -34.5171624159       13.6249736648  W2        9819            0.0000000000
     29062      9688  TIP3      OH2           -50.0355505720      -28.5802424159        4.5576236648  W2        9820            0.0000000000
     29063      9688  TIP3      H1            -50.7804505720      -29.0877124159        4.2354136648  W2        9820            0.0000000000
     29064      9688  TIP3      H2            -50.1698305720      -28.5314424159        5.5041036648  W2        9820            0.0000000000
     29065      9689  TIP3      OH2           -42.8856605720      -29.4474224159       13.3443836648  W2        9821            0.0000000000
     29066      9689  TIP3      H1            -42.2437805720      -28.9907924159       12.8006036648  W2        9821            0.0000000000
     29067      9689  TIP3      H2            -43.7159705720      -29.3341824159       12.8817936648  W2        9821            0.0000000000
     29068      9690  TIP3      OH2           -46.1378705720      -35.7662524159        2.7568836648  W2        9822            0.0000000000
     29069      9690  TIP3      H1            -47.0764505720      -35.6546924159        2.6057636648  W2        9822            0.0000000000
     29070      9690  TIP3      H2            -45.8406605720      -34.9095624159        3.0634536648  W2        9822            0.0000000000
     29071      9691  TIP3      OH2           -48.5163405720      -28.3959124159       15.7945336648  W2        9823            0.0000000000
     29072      9691  TIP3      H1            -48.8617305720      -28.7776724159       16.6014936648  W2        9823            0.0000000000
     29073      9691  TIP3      H2            -48.7163305720      -27.4625524159       15.8658236648  W2        9823            0.0000000000
     29074      9692  TIP3      OH2           -45.4195205720      -33.8989824159        4.4176236648  W2        9824            0.0000000000
     29075      9692  TIP3      H1            -44.5276205720      -34.0364824159        4.7367436648  W2        9824            0.0000000000
     29076      9692  TIP3      H2            -45.3631605720      -33.1083724159        3.8809736648  W2        9824            0.0000000000
     29077      9693  TIP3      OH2           -54.9107205720      -29.2852424159       10.3274136648  W2        9825            0.0000000000
     29078      9693  TIP3      H1            -54.1660005720      -29.2876724159        9.7260636648  W2        9825            0.0000000000
     29079      9693  TIP3      H2            -54.8330605720      -30.1088624159       10.8089236648  W2        9825            0.0000000000
     29080      9694  TIP3      OH2           -47.9101405720      -27.1218124159        3.5830836648  W2        9826            0.0000000000
     29081      9694  TIP3      H1            -48.2053005720      -26.2950224159        3.9645636648  W2        9826            0.0000000000
     29082      9694  TIP3      H2            -48.6131405720      -27.7411224159        3.7792236648  W2        9826            0.0000000000
     29083      9695  TIP3      OH2           -57.9027505720      -30.8245524159       15.6422636648  W2        9827            0.0000000000
     29084      9695  TIP3      H1            -57.6798905720      -31.2425924159       16.4740136648  W2        9827            0.0000000000
     29085      9695  TIP3      H2            -58.5047405720      -31.4370524159       15.2195436648  W2        9827            0.0000000000
     29086      9696  TIP3      OH2           -46.2659805720      -25.9343624159       15.7450336648  W2        9829            0.0000000000
     29087      9696  TIP3      H1            -47.1665505720      -25.7511024159       15.4774236648  W2        9829            0.0000000000
     29088      9696  TIP3      H2            -46.2318705720      -25.6754324159       16.6659136648  W2        9829            0.0000000000
     29089      9697  TIP3      OH2           -40.5346505720      -33.6895724159        4.1122936648  W2        9830            0.0000000000
     29090      9697  TIP3      H1            -41.0890205720      -34.0857724159        3.4400436648  W2        9830            0.0000000000
     29091      9697  TIP3      H2            -40.4342905720      -32.7790524159        3.8346236648  W2        9830            0.0000000000
     29092      9698  TIP3      OH2           -40.5714505720      -27.8894024159       16.9494436648  W2        9831            0.0000000000
     29093      9698  TIP3      H1            -41.4226005720      -27.6510224159       16.5820836648  W2        9831            0.0000000000
     29094      9698  TIP3      H2            -39.9811105720      -27.9060824159       16.1961536648  W2        9831            0.0000000000
     29095      9699  TIP3      OH2           -42.2394805720      -24.9035324159        4.5775036648  W2        9832            0.0000000000
     29096      9699  TIP3      H1            -42.6123705720      -25.7291524159        4.8865636648  W2        9832            0.0000000000
     29097      9699  TIP3      H2            -41.9621305720      -25.0865924159        3.6798436648  W2        9832            0.0000000000
     29098      9700  TIP3      OH2           -45.0790905720      -30.0955824159       11.5986936648  W2        9833            0.0000000000
     29099      9700  TIP3      H1            -46.0074005720      -30.3273924159       11.5716236648  W2        9833            0.0000000000
     29100      9700  TIP3      H2            -44.6279805720      -30.8726024159       11.2685736648  W2        9833            0.0000000000
     29101      9701  TIP3      OH2           -52.5357805720      -25.7674224159        7.7315636648  W2        9834            0.0000000000
     29102      9701  TIP3      H1            -52.0085605720      -24.9939824159        7.5314436648  W2        9834            0.0000000000
     29103      9701  TIP3      H2            -53.4159305720      -25.5425024159        7.4299636648  W2        9834            0.0000000000
     29104      9702  TIP3      OH2           -56.7810105720      -30.9050124159        2.3188036648  W2        9835            0.0000000000
     29105      9702  TIP3      H1            -56.1650205720      -30.2782924159        2.6982836648  W2        9835            0.0000000000
     29106      9702  TIP3      H2            -57.6427505720      -30.5890324159        2.5904536648  W2        9835            0.0000000000
     29107      9703  TIP3      OH2           -51.1085505720      -28.1044324159        7.3079936648  W2        9836            0.0000000000
     29108      9703  TIP3      H1            -51.3495505720      -27.1789924159        7.3495236648  W2        9836            0.0000000000
     29109      9703  TIP3      H2            -51.8491905720      -28.5633024159        7.7043836648  W2        9836            0.0000000000
     29110      9704  TIP3      OH2           -50.5938905720      -23.9550724159       13.6231036648  W2        9837            0.0000000000
     29111      9704  TIP3      H1            -50.2314205720      -23.1005124159       13.3895436648  W2        9837            0.0000000000
     29112      9704  TIP3      H2            -50.0623705720      -24.2469124159       14.3637336648  W2        9837            0.0000000000
     29113      9705  TIP3      OH2           -52.4254705720      -23.0826724159        6.8532136648  W2        9838            0.0000000000
     29114      9705  TIP3      H1            -53.3754205720      -22.9769324159        6.9045436648  W2        9838            0.0000000000
     29115      9705  TIP3      H2            -52.0736605720      -22.2619324159        7.1979636648  W2        9838            0.0000000000
     29116      9706  TIP3      OH2           -47.0498105720      -27.8560024159       13.3236636648  W2        9839            0.0000000000
     29117      9706  TIP3      H1            -47.4756805720      -28.0838324159       14.1500636648  W2        9839            0.0000000000
     29118      9706  TIP3      H2            -46.4692305720      -28.5948224159       13.1411936648  W2        9839            0.0000000000
     29119      9707  TIP3      OH2           -44.8469205720      -26.9269524159        2.3975636648  W2        9840            0.0000000000
     29120      9707  TIP3      H1            -44.4936105720      -27.3069724159        3.2019136648  W2        9840            0.0000000000
     29121      9707  TIP3      H2            -45.7955705720      -27.0204724159        2.4844936648  W2        9840            0.0000000000
     29122      9708  TIP3      OH2           -44.3913905720      -23.3040524159       15.7931436648  W2        9841            0.0000000000
     29123      9708  TIP3      H1            -44.9930705720      -23.8597624159       15.2977736648  W2        9841            0.0000000000
     29124      9708  TIP3      H2            -44.1100205720      -22.6370724159       15.1668836648  W2        9841            0.0000000000
     29125      9709  TIP3      OH2           -40.3434805720      -22.4477024159        2.5985836648  W2        9842            0.0000000000
     29126      9709  TIP3      H1            -39.5996905720      -21.8616524159        2.4587436648  W2        9842            0.0000000000
     29127      9709  TIP3      H2            -41.0376705720      -21.8791224159        2.9318236648  W2        9842            0.0000000000
     29128      9710  TIP3      OH2           -56.2688005720      -36.0712824159       15.2004036648  W2        9843            0.0000000000
     29129      9710  TIP3      H1            -57.1615705720      -35.7327424159       15.1328036648  W2        9843            0.0000000000
     29130      9710  TIP3      H2            -56.3675205720      -36.9266724159       15.6184836648  W2        9843            0.0000000000
     29131      9711  TIP3      OH2           -43.9809905720      -28.2547524159        4.6243536648  W2        9844            0.0000000000
     29132      9711  TIP3      H1            -44.2582305720      -28.9828224159        5.1804636648  W2        9844            0.0000000000
     29133      9711  TIP3      H2            -43.0536905720      -28.1355524159        4.8296136648  W2        9844            0.0000000000
     29134      9712  TIP3      OH2           -56.6176005720      -24.2668424159       13.6353436648  W2        9845            0.0000000000
     29135      9712  TIP3      H1            -56.4005705720      -25.1986024159       13.6043136648  W2        9845            0.0000000000
     29136      9712  TIP3      H2            -56.3712505720      -23.9923424159       14.5186236648  W2        9845            0.0000000000
     29137      9713  TIP3      OH2           -50.7561405720      -25.8153424159        0.8445636648  W2        9846            0.0000000000
     29138      9713  TIP3      H1            -50.5171605720      -26.5635324159        0.2974536648  W2        9846            0.0000000000
     29139      9713  TIP3      H2            -51.0250105720      -26.2031724159        1.6773436648  W2        9846            0.0000000000
     29140      9714  TIP3      OH2           -51.8190805720      -26.2449624159        3.3008236648  W2        9847            0.0000000000
     29141      9714  TIP3      H1            -51.6722805720      -26.7649824159        4.0909136648  W2        9847            0.0000000000
     29142      9714  TIP3      H2            -51.8219105720      -25.3382024159        3.6074136648  W2        9847            0.0000000000
     29143      9715  TIP3      OH2           -55.3659705720      -28.9926324159        3.8113636648  W2        9848            0.0000000000
     29144      9715  TIP3      H1            -56.0520405720      -28.6403824159        4.3783336648  W2        9848            0.0000000000
     29145      9715  TIP3      H2            -54.8431805720      -28.2296724159        3.5647936648  W2        9848            0.0000000000
     29146      9716  TIP3      OH2           -47.5344605720      -36.3302524159       14.0902636648  W2        9849            0.0000000000
     29147      9716  TIP3      H1            -46.8356705720      -36.2563824159       14.7402336648  W2        9849            0.0000000000
     29148      9716  TIP3      H2            -47.9153205720      -37.1947524159       14.2445536648  W2        9849            0.0000000000
     29149      9717  TIP3      OH2           -46.7499705720      -36.6780824159        5.1874936648  W2        9850            0.0000000000
     29150      9717  TIP3      H1            -46.5301405720      -36.2065424159        4.3840336648  W2        9850            0.0000000000
     29151      9717  TIP3      H2            -46.1915705720      -36.2838224159        5.8575536648  W2        9850            0.0000000000
     29152      9718  TIP3      OH2           -49.0813605720      -24.5476024159        4.0502436648  W2        9851            0.0000000000
     29153      9718  TIP3      H1            -49.8977505720      -24.0506324159        4.1026736648  W2        9851            0.0000000000
     29154      9718  TIP3      H2            -48.5517305720      -24.0722524159        3.4101236648  W2        9851            0.0000000000
     29155      9719  TIP3      OH2           -49.5499805720      -34.9502024159        6.0223336648  W2        9852            0.0000000000
     29156      9719  TIP3      H1            -48.7377205720      -34.4458824159        6.0685036648  W2        9852            0.0000000000
     29157      9719  TIP3      H2            -49.7946805720      -35.0952324159        6.9362936648  W2        9852            0.0000000000
     29158      9720  TIP3      OH2           -49.0143405720      -33.9639324159       15.2069936648  W2        9853            0.0000000000
     29159      9720  TIP3      H1            -48.8953105720      -33.3903924159       15.9640336648  W2        9853            0.0000000000
     29160      9720  TIP3      H2            -48.3588805720      -34.6519924159       15.3217736648  W2        9853            0.0000000000
     29161      9721  TIP3      OH2           -48.6663105720      -37.8689024159        6.9604436648  W2        9854            0.0000000000
     29162      9721  TIP3      H1            -49.0129605720      -37.2518424159        7.6048736648  W2        9854            0.0000000000
     29163      9721  TIP3      H2            -48.0076205720      -37.3683324159        6.4789936648  W2        9854            0.0000000000
     29164      9722  TIP3      OH2           -51.7430505720      -23.5038824159        4.0319336648  W2        9855            0.0000000000
     29165      9722  TIP3      H1            -51.5821805720      -22.7041324159        3.5311936648  W2        9855            0.0000000000
     29166      9722  TIP3      H2            -51.9402705720      -23.1972824159        4.9169936648  W2        9855            0.0000000000
     29167      9723  TIP3      OH2           -53.0086105720      -36.8059624159        3.6476936648  W2        9856            0.0000000000
     29168      9723  TIP3      H1            -53.0921305720      -35.9176524159        3.9943336648  W2        9856            0.0000000000
     29169      9723  TIP3      H2            -52.1185805720      -37.0712924159        3.8793736648  W2        9856            0.0000000000
     29170      9724  TIP3      OH2           -42.8097605720      -36.0569024159       16.0419636648  W2        9857            0.0000000000
     29171      9724  TIP3      H1            -43.7261805720      -35.7947324159       15.9543336648  W2        9857            0.0000000000
     29172      9724  TIP3      H2            -42.4742605720      -36.0600024159       15.1454936648  W2        9857            0.0000000000
     29173      9725  TIP3      OH2           -44.2076605720      -32.3068024159       10.1376936648  W2        9858            0.0000000000
     29174      9725  TIP3      H1            -45.0052205720      -32.7217824159        9.8091936648  W2        9858            0.0000000000
     29175      9725  TIP3      H2            -43.7625505720      -32.9974324159       10.6287436648  W2        9858            0.0000000000
     29176      9726  TIP3      OH2           -54.7500805720      -26.3787424159        2.7081436648  W2        9859            0.0000000000
     29177      9726  TIP3      H1            -54.1579305720      -25.6792624159        2.9843836648  W2        9859            0.0000000000
     29178      9726  TIP3      H2            -54.2907805720      -26.8117924159        1.9886036648  W2        9859            0.0000000000
     29179      9727  TIP3      OH2           -56.4341605720      -33.7144424159        1.8240836648  W2        9860            0.0000000000
     29180      9727  TIP3      H1            -56.4789005720      -32.7751324159        2.0027836648  W2        9860            0.0000000000
     29181      9727  TIP3      H2            -57.3218405720      -33.9499524159        1.5542936648  W2        9860            0.0000000000
     29182      9728  TIP3      OH2           -43.1212005720      -23.0505524159       11.7600436648  W2        9861            0.0000000000
     29183      9728  TIP3      H1            -43.2767705720      -22.3721124159       11.1029736648  W2        9861            0.0000000000
     29184      9728  TIP3      H2            -42.1885605720      -22.9786224159       11.9631036648  W2        9861            0.0000000000
     29185      9729  TIP3      OH2           -55.6259605720      -38.9327824159       10.4971836648  W2        9862            0.0000000000
     29186      9729  TIP3      H1            -55.8549805720      -38.8735324159        9.5696836648  W2        9862            0.0000000000
     29187      9729  TIP3      H2            -56.0686205720      -39.7242324159       10.8035936648  W2        9862            0.0000000000
     29188      9730  TIP3      OH2           -56.6956305720      -24.9920724159        6.6577636648  W2        9863            0.0000000000
     29189      9730  TIP3      H1            -57.5277705720      -24.5198024159        6.6849036648  W2        9863            0.0000000000
     29190      9730  TIP3      H2            -56.1498005720      -24.4823124159        6.0590736648  W2        9863            0.0000000000
     29191      9731  TIP3      OH2           -48.7179605720      -23.9522024159        0.9831636648  W2        9866            0.0000000000
     29192      9731  TIP3      H1            -49.3618605720      -24.5833424159        1.3045336648  W2        9866            0.0000000000
     29193      9731  TIP3      H2            -47.9561305720      -24.4834024159        0.7515136648  W2        9866            0.0000000000
     29194      9732  TIP3      OH2           -44.1136705720      -24.1352124159        1.2169636648  W2        9868            0.0000000000
     29195      9732  TIP3      H1            -43.8306305720      -24.9296924159        1.6696536648  W2        9868            0.0000000000
     29196      9732  TIP3      H2            -43.3738805720      -23.9021124159        0.6560736648  W2        9868            0.0000000000
     29197      9733  TIP3      OH2           -53.1589405720      -28.2257224159        1.0744536648  W2        9870            0.0000000000
     29198      9733  TIP3      H1            -53.0945305720      -29.0197624159        1.6050936648  W2        9870            0.0000000000
     29199      9733  TIP3      H2            -52.5060205720      -28.3444424159        0.3846536648  W2        9870            0.0000000000
     29200      9734  TIP3      OH2           -47.8066005720      -27.1785524159        0.8102536648  W2        9872            0.0000000000
     29201      9734  TIP3      H1            -48.0751905720      -26.9983424159        1.7111436648  W2        9872            0.0000000000
     29202      9734  TIP3      H2            -48.0130405720      -28.1039324159        0.6788336648  W2        9872            0.0000000000
     29203      9735  TIP3      OH2           -45.1101805720      -28.6837524159       15.7578636648  W2        9873            0.0000000000
     29204      9735  TIP3      H1            -44.3647005720      -28.0953824159       15.6382636648  W2        9873            0.0000000000
     29205      9735  TIP3      H2            -45.8675005720      -28.1017824159       15.8211736648  W2        9873            0.0000000000
     29206      9736  TIP3      OH2           -52.0095605720      -30.2531024159        3.3802536648  W2        9875            0.0000000000
     29207      9736  TIP3      H1            -52.4693605720      -30.7372724159        4.0661036648  W2        9875            0.0000000000
     29208      9736  TIP3      H2            -51.7546905720      -30.9215624159        2.7443036648  W2        9875            0.0000000000
     29209      9737  TIP3      OH2           -52.7206305720      -32.3603924159       15.7362136648  W2        9876            0.0000000000
     29210      9737  TIP3      H1            -53.3390205720      -31.6857324159       16.0166836648  W2        9876            0.0000000000
     29211      9737  TIP3      H2            -52.3765105720      -32.0390024159       14.9028336648  W2        9876            0.0000000000
     29212      9738  TIP3      OH2           -50.9385205720      -32.0099224159        1.6425736648  W2        9877            0.0000000000
     29213      9738  TIP3      H1            -51.1190205720      -32.1648024159        0.7154036648  W2        9877            0.0000000000
     29214      9738  TIP3      H2            -49.9884705720      -31.9020524159        1.6873636648  W2        9877            0.0000000000
     29215      9739  TIP3      OH2           -41.5486905720      -29.6555024159        1.0883836648  W2        9879            0.0000000000
     29216      9739  TIP3      H1            -41.8222105720      -30.0799524159        0.2752136648  W2        9879            0.0000000000
     29217      9739  TIP3      H2            -41.5092805720      -28.7240524159        0.8714236648  W2        9879            0.0000000000
     29218      9740  TIP3      OH2           -52.3812605720      -35.0053124159       16.8185236648  W2        9880            0.0000000000
     29219      9740  TIP3      H1            -52.2311705720      -35.7341824159       16.2164936648  W2        9880            0.0000000000
     29220      9740  TIP3      H2            -52.3790205720      -34.2281424159       16.2597436648  W2        9880            0.0000000000
     29221      9741  TIP3      OH2           -51.9686905720      -36.6357324159       14.3112636648  W2        9881            0.0000000000
     29222      9741  TIP3      H1            -51.4329405720      -36.1840624159       13.6591936648  W2        9881            0.0000000000
     29223      9741  TIP3      H2            -52.8207305720      -36.7437524159       13.8886736648  W2        9881            0.0000000000
     29224      9742  TIP3      OH2           -50.3868505720      -31.1961124159       14.5507836648  W2        9882            0.0000000000
     29225      9742  TIP3      H1            -49.6363705720      -31.3523624159       13.9775636648  W2        9882            0.0000000000
     29226      9742  TIP3      H2            -50.7260205720      -30.3444524159       14.2753336648  W2        9882            0.0000000000
     29227      9743  TIP3      OH2           -44.6545105720      -30.5924124159       17.6565836648  W2        9884            0.0000000000
     29228      9743  TIP3      H1            -44.9360105720      -29.8829524159       17.0789636648  W2        9884            0.0000000000
     29229      9743  TIP3      H2            -43.7120805720      -30.6651124159       17.5057036648  W2        9884            0.0000000000
     29230      9744  TIP3      OH2           -51.1631405720      -39.1791624159       14.7426236648  W2        9886            0.0000000000
     29231      9744  TIP3      H1            -51.2611805720      -38.2328424159       14.6372436648  W2        9886            0.0000000000
     29232      9744  TIP3      H2            -51.9055205720      -39.5517824159       14.2669736648  W2        9886            0.0000000000
     29233      9745  TIP3      OH2           -47.1834305720      -35.7302724159       17.3818136648  W2        9888            0.0000000000
     29234      9745  TIP3      H1            -48.1308905720      -35.6983024159       17.5141436648  W2        9888            0.0000000000
     29235      9745  TIP3      H2            -46.8707605720      -36.3555624159       18.0356336648  W2        9888            0.0000000000
     29236      9746  TIP3      OH2           -50.9413305720      -39.8854224159       17.4139036648  W2        9891            0.0000000000
     29237      9746  TIP3      H1            -50.2294905720      -40.5252024159       17.3998136648  W2        9891            0.0000000000
     29238      9746  TIP3      H2            -51.0422905720      -39.6185924159       16.5002136648  W2        9891            0.0000000000
     29239      9747  TIP3      OH2           -51.0413505720      -21.3195524159        2.6439336648  W2        9893            0.0000000000
     29240      9747  TIP3      H1            -50.1082805720      -21.1616824159        2.7877736648  W2        9893            0.0000000000
     29241      9747  TIP3      H2            -51.3054705720      -20.6442524159        2.0190836648  W2        9893            0.0000000000
     29242      9748  TIP3      OH2           -57.4728605720      -26.6831724159        2.1267436648  W2        9894            0.0000000000
     29243      9748  TIP3      H1            -56.5589405720      -26.6042824159        2.4001336648  W2        9894            0.0000000000
     29244      9748  TIP3      H2            -57.4655505720      -27.3702124159        1.4603036648  W2        9894            0.0000000000
     29245      9749  TIP3      OH2           -58.8238005720      -21.2903224159        7.2041336648  W2        9895            0.0000000000
     29246      9749  TIP3      H1            -59.4710905720      -21.7521524159        6.6712536648  W2        9895            0.0000000000
     29247      9749  TIP3      H2            -58.4693405720      -21.9619924159        7.7867536648  W2        9895            0.0000000000
     29248      9750  TIP3      OH2           -57.9538805720      -23.2096224159        9.0087536648  W2        9896            0.0000000000
     29249      9750  TIP3      H1            -58.2882005720      -24.0898924159        9.1807736648  W2        9896            0.0000000000
     29250      9750  TIP3      H2            -57.7316405720      -22.8641224159        9.8733136648  W2        9896            0.0000000000
     29251      9751  TIP3      OH2           -40.4054005720      -22.3999824159       11.9892336648  W2        9897            0.0000000000
     29252      9751  TIP3      H1            -40.4267305720      -22.2151424159       12.9281736648  W2        9897            0.0000000000
     29253      9751  TIP3      H2            -39.7147805720      -21.8315824159       11.6483736648  W2        9897            0.0000000000
     29254      9752  TIP3      OH2           -40.8421105720      -22.8328724159       14.9111436648  W2        9898            0.0000000000
     29255      9752  TIP3      H1            -41.3292405720      -23.5684624159       14.5398836648  W2        9898            0.0000000000
     29256      9752  TIP3      H2            -40.2928405720      -23.2264824159       15.5890836648  W2        9898            0.0000000000
     29257      9753  TIP3      OH2           -41.0904105720      -28.7866924159        5.0634236648  W2        9900            0.0000000000
     29258      9753  TIP3      H1            -40.2402705720      -28.3656024159        5.1905836648  W2        9900            0.0000000000
     29259      9753  TIP3      H2            -41.0849005720      -29.5266824159        5.6705636648  W2        9900            0.0000000000
     29260      9754  TIP3      OH2           -40.6958505720      -30.7329524159        6.8869936648  W2        9901            0.0000000000
     29261      9754  TIP3      H1            -41.4223905720      -31.2126924159        7.2847536648  W2        9901            0.0000000000
     29262      9754  TIP3      H2            -40.1145205720      -30.5274824159        7.6191536648  W2        9901            0.0000000000
     29263      9755  TIP3      OH2           -40.9367305720      -27.9482024159       11.8347536648  W2        9902            0.0000000000
     29264      9755  TIP3      H1            -40.1033105720      -28.3262024159       11.5541136648  W2        9902            0.0000000000
     29265      9755  TIP3      H2            -40.8247005720      -27.0050824159       11.7156636648  W2        9902            0.0000000000
     29266      9756  TIP3      OH2           -42.4505005720      -25.0704524159       14.1415936648  W2        9903            0.0000000000
     29267      9756  TIP3      H1            -43.0979705720      -24.7453024159       14.7671136648  W2        9903            0.0000000000
     29268      9756  TIP3      H2            -42.9681005720      -25.5106824159       13.4674236648  W2        9903            0.0000000000
     29269      9757  TIP3      OH2           -40.4275405720      -30.8321024159        3.2781236648  W2        9904            0.0000000000
     29270      9757  TIP3      H1            -40.9494305720      -30.4756924159        2.5592136648  W2        9904            0.0000000000
     29271      9757  TIP3      H2            -40.4606205720      -30.1573224159        3.9562136648  W2        9904            0.0000000000
     29272      9758  TIP3      OH2           -42.0786405720      -33.5925424159        1.8288336648  W2        9905            0.0000000000
     29273      9758  TIP3      H1            -41.9822005720      -32.9258424159        1.1488036648  W2        9905            0.0000000000
     29274      9758  TIP3      H2            -42.2186805720      -34.4079124159        1.3473836648  W2        9905            0.0000000000
     29275      9759  TIP3      OH2           -42.9091705720      -32.2123024159        7.4498636648  W2        9906            0.0000000000
     29276      9759  TIP3      H1            -43.0592905720      -33.1574424159        7.4296436648  W2        9906            0.0000000000
     29277      9759  TIP3      H2            -43.2627205720      -31.9311624159        8.2937736648  W2        9906            0.0000000000
     29278      9760  TIP3      OH2           -57.8739305720      -30.1340824159       11.4602436648  W2        9907            0.0000000000
     29279      9760  TIP3      H1            -57.6896405720      -30.2159124159       10.5245336648  W2        9907            0.0000000000
     29280      9760  TIP3      H2            -57.0246405720      -30.2583824159       11.8838836648  W2        9907            0.0000000000
     29281      9761  TIP3      OH2           -42.0528805720      -30.2419724159       17.0886936648  W2        9908            0.0000000000
     29282      9761  TIP3      H1            -41.4701505720      -30.9767424159       17.2804136648  W2        9908            0.0000000000
     29283      9761  TIP3      H2            -41.4889505720      -29.4699424159       17.1352736648  W2        9908            0.0000000000
     29284      9762  TIP3      OH2           -40.5561705720      -32.3393924159       17.7732336648  W2        9909            0.0000000000
     29285      9762  TIP3      H1            -41.4195005720      -32.7181824159       17.6077036648  W2        9909            0.0000000000
     29286      9762  TIP3      H2            -39.9518005720      -33.0779124159       17.6988136648  W2        9909            0.0000000000
     29287      9763  TIP3      OH2           -42.8312605720      -36.1845624159        0.9463836648  W2        9910            0.0000000000
     29288      9763  TIP3      H1            -42.2206805720      -36.5558824159        1.5832036648  W2        9910            0.0000000000
     29289      9763  TIP3      H2            -43.6681105720      -36.6058724159        1.1423836648  W2        9910            0.0000000000
     29290      9764  TIP3      OH2           -43.1986905720      -34.6297224159        5.9123736648  W2        9911            0.0000000000
     29291      9764  TIP3      H1            -42.9189805720      -35.5366824159        6.0365436648  W2        9911            0.0000000000
     29292      9764  TIP3      H2            -42.4395205720      -34.1955724159        5.5232936648  W2        9911            0.0000000000
     29293      9765  TIP3      OH2           -42.5868605720      -34.0479824159       11.3482636648  W2        9912            0.0000000000
     29294      9765  TIP3      H1            -41.6540605720      -33.8359924159       11.3138636648  W2        9912            0.0000000000
     29295      9765  TIP3      H2            -42.8221105720      -33.9467724159       12.2705636648  W2        9912            0.0000000000
     29296      9766  TIP3      OH2           -42.5576705720      -33.3114524159       14.1242036648  W2        9913            0.0000000000
     29297      9766  TIP3      H1            -43.4005405720      -33.0434124159       14.4901836648  W2        9913            0.0000000000
     29298      9766  TIP3      H2            -42.1152405720      -32.4892624159       13.9133136648  W2        9913            0.0000000000
     29299      9767  TIP3      OH2           -58.2764505720      -34.8635824159       17.6011236648  W2        9914            0.0000000000
     29300      9767  TIP3      H1            -57.3569605720      -34.9857524159       17.8374336648  W2        9914            0.0000000000
     29301      9767  TIP3      H2            -58.7260005720      -35.6136124159       17.9904736648  W2        9914            0.0000000000
     29302      9768  TIP3      OH2           -42.5852105720      -37.3667924159        5.9605736648  W2        9916            0.0000000000
     29303      9768  TIP3      H1            -42.4027105720      -37.8156424159        6.7860736648  W2        9916            0.0000000000
     29304      9768  TIP3      H2            -43.1849205720      -37.9513524159        5.4970336648  W2        9916            0.0000000000
     29305      9769  TIP3      OH2           -57.0552005720      -36.5514224159       10.4924136648  W2        9917            0.0000000000
     29306      9769  TIP3      H1            -56.6100405720      -37.3431724159       10.7943836648  W2        9917            0.0000000000
     29307      9769  TIP3      H2            -56.5889005720      -35.8349024159       10.9229736648  W2        9917            0.0000000000
     29308      9770  TIP3      OH2           -58.7511705720      -33.5521224159       11.5614336648  W2        9918            0.0000000000
     29309      9770  TIP3      H1            -58.2591905720      -33.7730724159       10.7706336648  W2        9918            0.0000000000
     29310      9770  TIP3      H2            -58.3890805720      -32.7117824159       11.8423836648  W2        9918            0.0000000000
     29311      9771  TIP3      OH2           -40.7185905720      -37.2989824159        2.4886036648  W2        9920            0.0000000000
     29312      9771  TIP3      H1            -40.3063305720      -38.0204124159        2.0134036648  W2        9920            0.0000000000
     29313      9771  TIP3      H2            -40.0369405720      -36.6295224159        2.5470336648  W2        9920            0.0000000000
     29314      9772  TIP3      OH2           -58.4375205720      -37.2942124159        5.6156736648  W2        9921            0.0000000000
     29315      9772  TIP3      H1            -59.3626805720      -37.0855524159        5.4862236648  W2        9921            0.0000000000
     29316      9772  TIP3      H2            -57.9835305720      -36.8101324159        4.9259036648  W2        9921            0.0000000000
     29317      9773  TIP3      OH2           -43.6668005720      -22.3100424159        7.5614136648  W2        9922            0.0000000000
     29318      9773  TIP3      H1            -43.0145105720      -22.6578324159        6.9533236648  W2        9922            0.0000000000
     29319      9773  TIP3      H2            -43.1564205720      -21.8217224159        8.2073836648  W2        9922            0.0000000000
     29320      9774  TIP3      OH2           -58.4739805720      -38.5563124159       13.9599236648  W2        9923            0.0000000000
     29321      9774  TIP3      H1            -59.1389305720      -38.8022824159       14.6030136648  W2        9923            0.0000000000
     29322      9774  TIP3      H2            -58.9168505720      -37.9342724159       13.3827236648  W2        9923            0.0000000000
     29323      9775  TIP3      OH2           -53.3277605720      -24.4067824159       14.3629036648  W2        9925            0.0000000000
     29324      9775  TIP3      H1            -53.7526505720      -23.5969324159       14.0803636648  W2        9925            0.0000000000
     29325      9775  TIP3      H2            -52.4234805720      -24.3213724159       14.0608836648  W2        9925            0.0000000000
     29326      9776  TIP3      OH2           -49.0166205720      -23.0077824159       17.3222736648  W2        9926            0.0000000000
     29327      9776  TIP3      H1            -48.8318705720      -23.3411724159       18.2003036648  W2        9926            0.0000000000
     29328      9776  TIP3      H2            -48.1701705720      -22.6979224159       17.0001936648  W2        9926            0.0000000000
     29329      9777  TIP3      OH2           -46.6715805720      -21.7218924159       16.5664136648  W2        9927            0.0000000000
     29330      9777  TIP3      H1            -45.9946905720      -22.3546624159       16.3263336648  W2        9927            0.0000000000
     29331      9777  TIP3      H2            -46.3497005720      -21.3208424159       17.3737436648  W2        9927            0.0000000000
     29332      9778  TIP3      OH2           -41.7542005720      -39.1323424159       15.6459136648  W2        9928            0.0000000000
     29333      9778  TIP3      H1            -42.5668505720      -38.8073124159       15.2583836648  W2        9928            0.0000000000
     29334      9778  TIP3      H2            -41.5213505720      -39.8924924159       15.1128236648  W2        9928            0.0000000000
     29335      9779  TIP3      OH2           -55.9260905720      -21.1503924159       14.4104336648  W2        9929            0.0000000000
     29336      9779  TIP3      H1            -56.6464505720      -20.7102924159       13.9592036648  W2        9929            0.0000000000
     29337      9779  TIP3      H2            -56.2916905720      -21.4009224159       15.2588336648  W2        9929            0.0000000000
     29338      9780  TIP3      OH2           -53.4588305720      -21.5500024159       13.4401536648  W2        9930            0.0000000000
     29339      9780  TIP3      H1            -54.3236105720      -21.4781524159       13.8441636648  W2        9930            0.0000000000
     29340      9780  TIP3      H2            -53.5139305720      -21.0032724159       12.6564036648  W2        9930            0.0000000000
     29341      9781  TIP3      OH2           -48.7482705720      -21.6621124159       12.6157536648  W2        9931            0.0000000000
     29342      9781  TIP3      H1            -49.2048705720      -21.1331424159       11.9615936648  W2        9931            0.0000000000
     29343      9781  TIP3      H2            -48.5854705720      -21.0589724159       13.3409836648  W2        9931            0.0000000000
     29344      9782  TIP3      OH2           -46.4206405720      -22.7841524159       13.5607836648  W2        9932            0.0000000000
     29345      9782  TIP3      H1            -47.3252705720      -22.6191324159       13.2949936648  W2        9932            0.0000000000
     29346      9782  TIP3      H2            -45.9917805720      -21.9309324159       13.4951236648  W2        9932            0.0000000000
     29347      9783  TIP3      OH2           -43.8164505720      -21.2142424159       13.8555636648  W2        9933            0.0000000000
     29348      9783  TIP3      H1            -43.9982505720      -20.2983524159       13.6450536648  W2        9933            0.0000000000
     29349      9783  TIP3      H2            -43.6396705720      -21.6245324159       13.0090236648  W2        9933            0.0000000000
     29350      9784  TIP3      OH2           -56.5112805720      -22.5271424159       11.3206136648  W2        9934            0.0000000000
     29351      9784  TIP3      H1            -56.5296805720      -22.9526324159       12.1778436648  W2        9934            0.0000000000
     29352      9784  TIP3      H2            -55.7064905720      -22.8456424159       10.9118336648  W2        9934            0.0000000000
     29353      9785  TIP3      OH2           -54.3699705720      -23.8172724159        9.9756036648  W2        9935            0.0000000000
     29354      9785  TIP3      H1            -54.5889005720      -24.7335324159       10.1452036648  W2        9935            0.0000000000
     29355      9785  TIP3      H2            -53.5457505720      -23.6772324159       10.4417436648  W2        9935            0.0000000000
     29356      9786  TIP3      OH2           -51.8327205720      -23.3473424159       10.8244036648  W2        9936            0.0000000000
     29357      9786  TIP3      H1            -51.6201505720      -24.2354424159       10.5374936648  W2        9936            0.0000000000
     29358      9786  TIP3      H2            -51.7682105720      -23.3815724159       11.7788036648  W2        9936            0.0000000000
     29359      9787  TIP3      OH2           -48.3243505720      -37.6832824159        9.9687336648  W2        9937            0.0000000000
     29360      9787  TIP3      H1            -48.9986705720      -38.3127224159       10.2243136648  W2        9937            0.0000000000
     29361      9787  TIP3      H2            -47.7604305720      -38.1673924159        9.3655236648  W2        9937            0.0000000000
     29362      9788  TIP3      OH2           -43.1816305720      -39.5758824159       10.0814436648  W2        9938            0.0000000000
     29363      9788  TIP3      H1            -42.5778705720      -39.0283424159        9.5795436648  W2        9938            0.0000000000
     29364      9788  TIP3      H2            -44.0514305720      -39.2568424159        9.8408536648  W2        9938            0.0000000000
     29365      9789  TIP3      OH2           -41.4545905720      -38.4370124159        8.4145336648  W2        9939            0.0000000000
     29366      9789  TIP3      H1            -40.8428405720      -38.9514424159        7.8878936648  W2        9939            0.0000000000
     29367      9789  TIP3      H2            -41.0722505720      -37.5598024159        8.4379736648  W2        9939            0.0000000000
     29368      9790  TIP3      OH2           -55.9976005720      -39.0492524159        7.7907236648  W2        9940            0.0000000000
     29369      9790  TIP3      H1            -56.7746205720      -39.2837624159        7.2833136648  W2        9940            0.0000000000
     29370      9790  TIP3      H2            -55.4672405720      -39.8460424159        7.7995236648  W2        9940            0.0000000000
     29371      9791  TIP3      OH2           -57.1612605720      -39.2514424159        3.5943336648  W2        9941            0.0000000000
     29372      9791  TIP3      H1            -56.7221905720      -38.6403924159        3.0026836648  W2        9941            0.0000000000
     29373      9791  TIP3      H2            -57.7950205720      -38.7130324159        4.0683336648  W2        9941            0.0000000000
     29374      9792  TIP3      OH2           -51.4183405720      -39.1225424159        7.6040336648  W2        9942            0.0000000000
     29375      9792  TIP3      H1            -50.5440005720      -38.7341124159        7.5744636648  W2        9942            0.0000000000
     29376      9792  TIP3      H2            -51.5542605720      -39.3377624159        8.5267536648  W2        9942            0.0000000000
     29377      9793  TIP3      OH2           -45.8615005720      -39.0925624159        9.2532036648  W2        9943            0.0000000000
     29378      9793  TIP3      H1            -45.7853405720      -38.9974024159        8.3038036648  W2        9943            0.0000000000
     29379      9793  TIP3      H2            -46.1365805720      -40.0002724159        9.3821136648  W2        9943            0.0000000000
     29380      9794  TIP3      OH2           -44.5082405720      -39.0667824159        4.9457036648  W2        9944            0.0000000000
     29381      9794  TIP3      H1            -45.2111305720      -38.4518624159        4.7358436648  W2        9944            0.0000000000
     29382      9794  TIP3      H2            -44.9531005720      -39.9041124159        5.0767936648  W2        9944            0.0000000000
     29383      9795  TIP3      OH2           -57.2603105720      -23.3032224159        4.4918436648  W2        9945            0.0000000000
     29384      9795  TIP3      H1            -57.9453205720      -23.3413324159        3.8243536648  W2        9945            0.0000000000
     29385      9795  TIP3      H2            -57.2565905720      -22.3904624159        4.7800536648  W2        9945            0.0000000000
     29386      9796  TIP3      OH2           -55.3003505720      -37.3352924159        2.0367436648  W2        9946            0.0000000000
     29387      9796  TIP3      H1            -54.8090105720      -37.9650524159        1.5092936648  W2        9946            0.0000000000
     29388      9796  TIP3      H2            -54.6767205720      -37.0393524159        2.6998636648  W2        9946            0.0000000000
     29389      9797  TIP3      OH2           -50.2743405720      -37.0421424159        4.4937936648  W2        9947            0.0000000000
     29390      9797  TIP3      H1            -50.0962105720      -37.6888224159        5.1766536648  W2        9947            0.0000000000
     29391      9797  TIP3      H2            -50.3277205720      -36.2083724159        4.9609036648  W2        9947            0.0000000000
     29392      9798  TIP3      OH2           -48.3959605720      -22.0937324159        2.8894636648  W2        9948            0.0000000000
     29393      9798  TIP3      H1            -47.5299405720      -21.7269924159        2.7112836648  W2        9948            0.0000000000
     29394      9798  TIP3      H2            -48.6426805720      -22.5329324159        2.0755436648  W2        9948            0.0000000000
     29395      9799  TIP3      OH2           -41.6870005720      -22.5307024159        5.5685736648  W2        9949            0.0000000000
     29396      9799  TIP3      H1            -41.8812905720      -23.2784924159        5.0035336648  W2        9949            0.0000000000
     29397      9799  TIP3      H2            -41.7259905720      -21.7726924159        4.9853636648  W2        9949            0.0000000000
     29398      9800  TIP3      OH2           -56.0398005720      -38.5350624159       17.3083436648  W2        9950            0.0000000000
     29399      9800  TIP3      H1            -56.4059805720      -39.3008024159       17.7508136648  W2        9950            0.0000000000
     29400      9800  TIP3      H2            -55.1269505720      -38.5060424159       17.5948536648  W2        9950            0.0000000000
     29401      9801  TIP3      OH2           -55.4421905720      -22.3831424159        1.5170536648  W2        9952            0.0000000000
     29402      9801  TIP3      H1            -55.7097305720      -22.0968524159        2.3903636648  W2        9952            0.0000000000
     29403      9801  TIP3      H2            -54.6709305720      -22.9292224159        1.6693036648  W2        9952            0.0000000000
     29404      9802  TIP3      OH2           -42.4693805720      -23.7794624159       17.7187536648  W2        9954            0.0000000000
     29405      9802  TIP3      H1            -43.2511905720      -23.9656624159       17.1988136648  W2        9954            0.0000000000
     29406      9802  TIP3      H2            -42.5413905720      -22.8500324159       17.9360036648  W2        9954            0.0000000000
     29407      9803  TIP3      OH2           -28.0633405720      -29.8930224159        7.7494736648  W2        9955            0.0000000000
     29408      9803  TIP3      H1            -27.9742305720      -28.9492024159        7.6171836648  W2        9955            0.0000000000
     29409      9803  TIP3      H2            -28.7015805720      -30.1683824159        7.0914136648  W2        9955            0.0000000000
     29410      9804  TIP3      OH2           -29.1302105720      -30.6379524159       11.1682936648  W2        9956            0.0000000000
     29411      9804  TIP3      H1            -29.1684605720      -31.2843224159       11.8732536648  W2        9956            0.0000000000
     29412      9804  TIP3      H2            -29.4525605720      -31.1045124159       10.3971636648  W2        9956            0.0000000000
     29413      9805  TIP3      OH2           -36.7617105720      -31.0237424159       12.7612836648  W2        9957            0.0000000000
     29414      9805  TIP3      H1            -36.7205005720      -31.6494124159       13.4845236648  W2        9957            0.0000000000
     29415      9805  TIP3      H2            -36.0589405720      -30.3998824159       12.9433236648  W2        9957            0.0000000000
     29416      9806  TIP3      OH2           -25.4241905720      -27.6989124159        9.4698036648  W2        9958            0.0000000000
     29417      9806  TIP3      H1            -25.8649205720      -28.4193124159        9.9203636648  W2        9958            0.0000000000
     29418      9806  TIP3      H2            -25.4372205720      -26.9781924159       10.0995736648  W2        9958            0.0000000000
     29419      9807  TIP3      OH2           -35.8384005720      -26.5738524159       11.2961936648  W2        9959            0.0000000000
     29420      9807  TIP3      H1            -36.2078805720      -27.3758024159       10.9266236648  W2        9959            0.0000000000
     29421      9807  TIP3      H2            -34.8972905720      -26.7423624159       11.3425336648  W2        9959            0.0000000000
     29422      9808  TIP3      OH2           -39.2283505720      -32.9135924159        6.6890736648  W2        9960            0.0000000000
     29423      9808  TIP3      H1            -39.6760105720      -32.0677224159        6.6707236648  W2        9960            0.0000000000
     29424      9808  TIP3      H2            -39.7892305720      -33.4931724159        6.1735836648  W2        9960            0.0000000000
     29425      9809  TIP3      OH2           -38.5177405720      -30.7516324159        8.8148736648  W2        9961            0.0000000000
     29426      9809  TIP3      H1            -38.3043905720      -31.5214724159        9.3421736648  W2        9961            0.0000000000
     29427      9809  TIP3      H2            -37.7799805720      -30.6619624159        8.2116336648  W2        9961            0.0000000000
     29428      9810  TIP3      OH2           -28.3126405720      -22.5947424159        9.6818436648  W2        9962            0.0000000000
     29429      9810  TIP3      H1            -27.6930005720      -23.2712724159        9.4087636648  W2        9962            0.0000000000
     29430      9810  TIP3      H2            -28.5209005720      -22.8126624159       10.5903336648  W2        9962            0.0000000000
     29431      9811  TIP3      OH2           -30.7407705720      -28.2058124159       11.5743936648  W2        9963            0.0000000000
     29432      9811  TIP3      H1            -30.4369805720      -28.8916724159       10.9798036648  W2        9963            0.0000000000
     29433      9811  TIP3      H2            -30.0193705720      -28.0869424159       12.1921936648  W2        9963            0.0000000000
     29434      9812  TIP3      OH2           -22.0777905720      -36.6042824159       12.4350136648  W2        9964            0.0000000000
     29435      9812  TIP3      H1            -22.0285705720      -35.9941624159       13.1709236648  W2        9964            0.0000000000
     29436      9812  TIP3      H2            -21.6522805720      -36.1431924159       11.7121236648  W2        9964            0.0000000000
     29437      9813  TIP3      OH2           -27.6000705720      -33.8115724159       11.9018736648  W2        9965            0.0000000000
     29438      9813  TIP3      H1            -27.4574805720      -34.7578724159       11.9220336648  W2        9965            0.0000000000
     29439      9813  TIP3      H2            -27.7061705720      -33.6045924159       10.9733636648  W2        9965            0.0000000000
     29440      9814  TIP3      OH2           -34.4452405720      -35.7099324159        9.1743536648  W2        9966            0.0000000000
     29441      9814  TIP3      H1            -34.4021305720      -34.8500824159        8.7559836648  W2        9966            0.0000000000
     29442      9814  TIP3      H2            -34.9028305720      -36.2624624159        8.5406736648  W2        9966            0.0000000000
     29443      9815  TIP3      OH2           -26.7229705720      -35.5793724159        7.5751836648  W2        9967            0.0000000000
     29444      9815  TIP3      H1            -26.0765405720      -35.9080524159        8.1999436648  W2        9967            0.0000000000
     29445      9815  TIP3      H2            -26.2130305720      -35.0614724159        6.9523236648  W2        9967            0.0000000000
     29446      9816  TIP3      OH2           -37.8250905720      -33.3133524159        9.9364936648  W2        9968            0.0000000000
     29447      9816  TIP3      H1            -37.1714305720      -33.8631824159       10.3685036648  W2        9968            0.0000000000
     29448      9816  TIP3      H2            -37.8011605720      -33.5874524159        9.0196936648  W2        9968            0.0000000000
     29449      9817  TIP3      OH2           -32.6686405720      -31.7632224159        9.1516436648  W2        9969            0.0000000000
     29450      9817  TIP3      H1            -32.0525405720      -32.2896824159        9.6610436648  W2        9969            0.0000000000
     29451      9817  TIP3      H2            -33.2547605720      -32.4033524159        8.7480036648  W2        9969            0.0000000000
     29452      9818  TIP3      OH2           -21.6863305720      -35.1263624159       14.6709936648  W2        9970            0.0000000000
     29453      9818  TIP3      H1            -22.3748705720      -34.4682924159       14.5756536648  W2        9970            0.0000000000
     29454      9818  TIP3      H2            -21.6708705720      -35.3235724159       15.6075336648  W2        9970            0.0000000000
     29455      9819  TIP3      OH2           -35.6350505720      -36.7920924159       13.2484336648  W2        9971            0.0000000000
     29456      9819  TIP3      H1            -35.8538805720      -36.2620324159       12.4820336648  W2        9971            0.0000000000
     29457      9819  TIP3      H2            -36.3029605720      -36.5655424159       13.8955736648  W2        9971            0.0000000000
     29458      9820  TIP3      OH2           -28.2660705720      -27.2919824159        6.7923436648  W2        9972            0.0000000000
     29459      9820  TIP3      H1            -28.5615605720      -27.6147524159        5.9410336648  W2        9972            0.0000000000
     29460      9820  TIP3      H2            -28.5902905720      -26.3923124159        6.8336036648  W2        9972            0.0000000000
     29461      9821  TIP3      OH2           -33.0659105720      -29.1165224159       13.5358036648  W2        9973            0.0000000000
     29462      9821  TIP3      H1            -33.8060005720      -28.5183724159       13.6393236648  W2        9973            0.0000000000
     29463      9821  TIP3      H2            -32.3519605720      -28.5625624159       13.2201636648  W2        9973            0.0000000000
     29464      9822  TIP3      OH2           -24.9591305720      -36.2884424159        9.5557736648  W2        9974            0.0000000000
     29465      9822  TIP3      H1            -25.1743305720      -37.0541024159       10.0883736648  W2        9974            0.0000000000
     29466      9822  TIP3      H2            -24.3033905720      -35.8159824159       10.0686236648  W2        9974            0.0000000000
     29467      9823  TIP3      OH2           -36.0413205720      -34.8999124159       11.2006536648  W2        9975            0.0000000000
     29468      9823  TIP3      H1            -35.4276905720      -34.2671524159       11.5738936648  W2        9975            0.0000000000
     29469      9823  TIP3      H2            -35.5292505720      -35.3724124159       10.5443436648  W2        9975            0.0000000000
     29470      9824  TIP3      OH2           -34.6584805720      -27.1522224159       14.3229536648  W2        9976            0.0000000000
     29471      9824  TIP3      H1            -34.6637205720      -26.2728724159       13.9448836648  W2        9976            0.0000000000
     29472      9824  TIP3      H2            -35.5120705720      -27.2358124159       14.7479436648  W2        9976            0.0000000000
     29473      9825  TIP3      OH2           -38.5373905720      -27.4814324159        5.1048836648  W2        9977            0.0000000000
     29474      9825  TIP3      H1            -38.8093005720      -27.2523324159        4.2161736648  W2        9977            0.0000000000
     29475      9825  TIP3      H2            -38.4918205720      -26.6435524159        5.5654136648  W2        9977            0.0000000000
     29476      9826  TIP3      OH2           -24.9124205720      -25.8598424159       11.8177336648  W2        9978            0.0000000000
     29477      9826  TIP3      H1            -25.8540505720      -25.8014524159       11.9794236648  W2        9978            0.0000000000
     29478      9826  TIP3      H2            -24.6358105720      -24.9537924159       11.6807036648  W2        9978            0.0000000000
     29479      9827  TIP3      OH2           -24.6117205720      -37.5733124159       13.2351236648  W2        9979            0.0000000000
     29480      9827  TIP3      H1            -25.3478005720      -36.9626024159       13.1972536648  W2        9979            0.0000000000
     29481      9827  TIP3      H2            -23.9283205720      -37.1584124159       12.7087636648  W2        9979            0.0000000000
     29482      9828  TIP3      OH2           -31.6085805720      -39.4865824159       10.7009236648  W2        9980            0.0000000000
     29483      9828  TIP3      H1            -31.7261605720      -40.4349824159       10.6467536648  W2        9980            0.0000000000
     29484      9828  TIP3      H2            -32.4635705720      -39.1539724159       10.9740336648  W2        9980            0.0000000000
     29485      9829  TIP3      OH2           -26.6603005720      -24.0784924159        8.4428936648  W2        9981            0.0000000000
     29486      9829  TIP3      H1            -26.2350705720      -24.7857024159        7.9578536648  W2        9981            0.0000000000
     29487      9829  TIP3      H2            -26.3433005720      -23.2772224159        8.0261136648  W2        9981            0.0000000000
     29488      9830  TIP3      OH2           -25.5006505720      -26.1776424159        6.9515536648  W2        9982            0.0000000000
     29489      9830  TIP3      H1            -25.7581705720      -26.8676324159        6.3401436648  W2        9982            0.0000000000
     29490      9830  TIP3      H2            -25.4295705720      -26.6205224159        7.7971436648  W2        9982            0.0000000000
     29491      9831  TIP3      OH2           -23.8146305720      -27.6109724159       15.4289036648  W2        9983            0.0000000000
     29492      9831  TIP3      H1            -23.6750005720      -28.2027224159       14.6896036648  W2        9983            0.0000000000
     29493      9831  TIP3      H2            -23.6473505720      -26.7383824159       15.0727836648  W2        9983            0.0000000000
     29494      9832  TIP3      OH2           -29.3420905720      -30.6490224159        5.2015036648  W2        9984            0.0000000000
     29495      9832  TIP3      H1            -30.0535405720      -30.1140524159        4.8495536648  W2        9984            0.0000000000
     29496      9832  TIP3      H2            -28.6511305720      -30.5938124159        4.5413936648  W2        9984            0.0000000000
     29497      9833  TIP3      OH2           -29.2881705720      -32.1915924159        2.2400036648  W2        9985            0.0000000000
     29498      9833  TIP3      H1            -28.5871805720      -32.1689024159        2.8914036648  W2        9985            0.0000000000
     29499      9833  TIP3      H2            -28.9858805720      -32.8196224159        1.5839336648  W2        9985            0.0000000000
     29500      9834  TIP3      OH2           -21.9727005720      -31.2711724159       13.4949436648  W2        9986            0.0000000000
     29501      9834  TIP3      H1            -22.6252905720      -30.5766124159       13.5840336648  W2        9986            0.0000000000
     29502      9834  TIP3      H2            -21.5076705720      -31.0610824159       12.6851036648  W2        9986            0.0000000000
     29503      9835  TIP3      OH2           -25.9363205720      -30.4396924159        6.1530936648  W2        9987            0.0000000000
     29504      9835  TIP3      H1            -26.6682205720      -30.2113224159        6.7261536648  W2        9987            0.0000000000
     29505      9835  TIP3      H2            -25.4891005720      -31.1534224159        6.6078436648  W2        9987            0.0000000000
     29506      9836  TIP3      OH2           -26.0389705720      -32.2654324159       15.2207936648  W2        9988            0.0000000000
     29507      9836  TIP3      H1            -25.9590605720      -31.5019924159       15.7926436648  W2        9988            0.0000000000
     29508      9836  TIP3      H2            -26.6402005720      -31.9861924159       14.5303036648  W2        9988            0.0000000000
     29509      9837  TIP3      OH2           -34.2909505720      -29.8090724159        8.0355936648  W2        9989            0.0000000000
     29510      9837  TIP3      H1            -34.6214305720      -30.1797324159        7.2172936648  W2        9989            0.0000000000
     29511      9837  TIP3      H2            -33.7025405720      -30.4796724159        8.3824236648  W2        9989            0.0000000000
     29512      9838  TIP3      OH2           -32.9242005720      -26.3810124159       10.7168136648  W2        9990            0.0000000000
     29513      9838  TIP3      H1            -33.0190705720      -26.9597024159        9.9602736648  W2        9990            0.0000000000
     29514      9838  TIP3      H2            -32.1948405720      -26.7524424159       11.2130936648  W2        9990            0.0000000000
     29515      9839  TIP3      OH2           -33.9244005720      -31.0405124159       11.6690936648  W2        9991            0.0000000000
     29516      9839  TIP3      H1            -33.3591505720      -30.9190924159       10.9062136648  W2        9991            0.0000000000
     29517      9839  TIP3      H2            -33.6055105720      -30.4030124159       12.3079436648  W2        9991            0.0000000000
     29518      9840  TIP3      OH2           -27.6151805720      -25.5373224159       12.4031436648  W2        9992            0.0000000000
     29519      9840  TIP3      H1            -27.8555205720      -24.8750124159       13.0510636648  W2        9992            0.0000000000
     29520      9840  TIP3      H2            -27.8133605720      -26.3718024159       12.8281036648  W2        9992            0.0000000000
     29521      9841  TIP3      OH2           -33.0443305720      -26.6412424159       16.3862836648  W2        9993            0.0000000000
     29522      9841  TIP3      H1            -33.3555805720      -25.8589224159       16.8416036648  W2        9993            0.0000000000
     29523      9841  TIP3      H2            -33.6943105720      -26.7943324159       15.7004836648  W2        9993            0.0000000000
     29524      9842  TIP3      OH2           -27.0653705720      -31.2774024159        3.8382136648  W2        9994            0.0000000000
     29525      9842  TIP3      H1            -26.4858205720      -31.1273724159        4.5851036648  W2        9994            0.0000000000
     29526      9842  TIP3      H2            -26.6513705720      -30.8066624159        3.1148536648  W2        9994            0.0000000000
     29527      9843  TIP3      OH2           -36.1243405720      -30.4431324159       15.6148536648  W2        9995            0.0000000000
     29528      9843  TIP3      H1            -36.0540205720      -29.7924524159       16.3133536648  W2        9995            0.0000000000
     29529      9843  TIP3      H2            -37.0151205720      -30.3403824159       15.2799436648  W2        9995            0.0000000000
     29530      9844  TIP3      OH2           -29.3388805720      -24.5405524159        7.2735236648  W2        9996            0.0000000000
     29531      9844  TIP3      H1            -28.8651205720      -24.2449224159        8.0509436648  W2        9996            0.0000000000
     29532      9844  TIP3      H2            -29.9019505720      -23.8023924159        7.0404836648  W2        9996            0.0000000000
     29533      9845  TIP3      OH2           -34.8047405720      -24.5697424159       17.1496636648  W2        9997            0.0000000000
     29534      9845  TIP3      H1            -34.7972105720      -24.7057724159       16.2022136648  W2        9997            0.0000000000
     29535      9845  TIP3      H2            -35.7207005720      -24.6869324159       17.4016636648  W2        9997            0.0000000000
     29536      9846  TIP3      OH2           -23.3665305720      -39.5273624159        3.6511836648  W2        9998            0.0000000000
     29537      9846  TIP3      H1            -24.2664605720      -39.3884624159        3.9462436648  W2        9998            0.0000000000
     29538      9846  TIP3      H2            -23.1146905720      -38.6959024159        3.2493536648  W2        9998            0.0000000000
     29539      9847  TIP3      OH2           -35.3006805720      -30.7396424159        5.6248736648  W2        9999            0.0000000000
     29540      9847  TIP3      H1            -35.5925505720      -29.9714724159        5.1340036648  W2        9999            0.0000000000
     29541      9847  TIP3      H2            -35.9751605720      -31.3990224159        5.4620136648  W2        9999            0.0000000000
     29542      9848  TIP3      OH2           -22.1773905720      -25.1611224159        2.0275736648  W2        10000           0.0000000000
     29543      9848  TIP3      H1            -22.1040405720      -24.2221024159        2.1981036648  W2        10000           0.0000000000
     29544      9848  TIP3      H2            -21.2718805720      -25.4662624159        1.9713036648  W2        10000           0.0000000000
     29545      9849  TIP3      OH2           -39.2076705720      -28.3767224159       14.4398536648  W2        10001           0.0000000000
     29546      9849  TIP3      H1            -39.7088305720      -28.4047824159       13.6248236648  W2        10001           0.0000000000
     29547      9849  TIP3      H2            -39.2023005720      -29.2824024159       14.7495836648  W2        10001           0.0000000000
     29548      9850  TIP3      OH2           -39.4574005720      -25.5963424159       11.3238736648  W2        10002           0.0000000000
     29549      9850  TIP3      H1            -38.5113405720      -25.7406424159       11.3048236648  W2        10002           0.0000000000
     29550      9850  TIP3      H2            -39.5697705720      -24.8120624159       11.8609936648  W2        10002           0.0000000000
     29551      9851  TIP3      OH2           -21.2595505720      -24.9303724159       17.0062436648  W2        10003           0.0000000000
     29552      9851  TIP3      H1            -21.3088705720      -25.8855624159       16.9690036648  W2        10003           0.0000000000
     29553      9851  TIP3      H2            -22.0863205720      -24.6628424159       17.4076236648  W2        10003           0.0000000000
     29554      9852  TIP3      OH2           -30.2811505720      -25.3564524159       15.8823836648  W2        10004           0.0000000000
     29555      9852  TIP3      H1            -30.1936905720      -24.5299924159       16.3572936648  W2        10004           0.0000000000
     29556      9852  TIP3      H2            -31.1446405720      -25.6860724159       16.1313136648  W2        10004           0.0000000000
     29557      9853  TIP3      OH2           -29.8665705720      -21.5840824159        5.6884436648  W2        10005           0.0000000000
     29558      9853  TIP3      H1            -29.9419705720      -21.7053624159        4.7419636648  W2        10005           0.0000000000
     29559      9853  TIP3      H2            -29.8337005720      -20.6348124159        5.8069036648  W2        10005           0.0000000000
     29560      9854  TIP3      OH2           -36.2131905720      -22.7953824159        7.4693436648  W2        10006           0.0000000000
     29561      9854  TIP3      H1            -36.0611505720      -23.1433424159        8.3479936648  W2        10006           0.0000000000
     29562      9854  TIP3      H2            -37.0641505720      -23.1516524159        7.2140636648  W2        10006           0.0000000000
     29563      9855  TIP3      OH2           -26.7649705720      -22.4300624159        2.6906836648  W2        10007           0.0000000000
     29564      9855  TIP3      H1            -26.3901305720      -23.1744524159        2.2199436648  W2        10007           0.0000000000
     29565      9855  TIP3      H2            -26.7606005720      -22.7000024159        3.6090136648  W2        10007           0.0000000000
     29566      9856  TIP3      OH2           -27.0961605720      -22.5043524159        5.4399036648  W2        10008           0.0000000000
     29567      9856  TIP3      H1            -28.0311805720      -22.4041624159        5.6186036648  W2        10008           0.0000000000
     29568      9856  TIP3      H2            -26.8159705720      -23.2137524159        6.0182236648  W2        10008           0.0000000000
     29569      9857  TIP3      OH2           -24.1075705720      -33.4371224159       17.4864636648  W2        10009           0.0000000000
     29570      9857  TIP3      H1            -24.5148905720      -32.9565624159       16.7657936648  W2        10009           0.0000000000
     29571      9857  TIP3      H2            -24.0670005720      -34.3425224159       17.1785436648  W2        10009           0.0000000000
     29572      9858  TIP3      OH2           -36.9586205720      -27.0531824159       15.4831336648  W2        10010           0.0000000000
     29573      9858  TIP3      H1            -36.7424905720      -27.4146224159       16.3427136648  W2        10010           0.0000000000
     29574      9858  TIP3      H2            -37.8141505720      -27.4278024159       15.2734836648  W2        10010           0.0000000000
     29575      9859  TIP3      OH2           -34.3398205720      -38.5831324159       11.4785536648  W2        10011           0.0000000000
     29576      9859  TIP3      H1            -35.2014505720      -38.6703124159       11.0708436648  W2        10011           0.0000000000
     29577      9859  TIP3      H2            -34.3622505720      -37.7271224159       11.9063136648  W2        10011           0.0000000000
     29578      9860  TIP3      OH2           -29.6770405720      -38.8610924159       14.8532536648  W2        10012           0.0000000000
     29579      9860  TIP3      H1            -29.2567305720      -39.2763824159       15.6063136648  W2        10012           0.0000000000
     29580      9860  TIP3      H2            -30.6100805720      -39.0397624159       14.9704536648  W2        10012           0.0000000000
     29581      9861  TIP3      OH2           -26.3505505720      -35.1055724159       15.7067036648  W2        10013           0.0000000000
     29582      9861  TIP3      H1            -26.8646005720      -35.2313524159       16.5043036648  W2        10013           0.0000000000
     29583      9861  TIP3      H2            -26.5060805720      -34.1932624159       15.4623236648  W2        10013           0.0000000000
     29584      9862  TIP3      OH2           -25.5880605720      -30.2445724159        1.4680036648  W2        10014           0.0000000000
     29585      9862  TIP3      H1            -25.5459805720      -30.4671824159        0.5380036648  W2        10014           0.0000000000
     29586      9862  TIP3      H2            -24.7388505720      -29.8458624159        1.6579936648  W2        10014           0.0000000000
     29587      9863  TIP3      OH2           -30.0153105720      -36.3687524159        2.1383336648  W2        10015           0.0000000000
     29588      9863  TIP3      H1            -30.2688305720      -36.3495924159        3.0611436648  W2        10015           0.0000000000
     29589      9863  TIP3      H2            -30.2721005720      -37.2402124159        1.8369536648  W2        10015           0.0000000000
     29590      9864  TIP3      OH2           -34.2488105720      -33.6176824159       12.5735736648  W2        10016           0.0000000000
     29591      9864  TIP3      H1            -34.8906005720      -33.6579524159       13.2825836648  W2        10016           0.0000000000
     29592      9864  TIP3      H2            -34.2116105720      -32.6912124159       12.3358736648  W2        10016           0.0000000000
     29593      9865  TIP3      OH2           -34.2519005720      -33.3966724159        7.4855736648  W2        10017           0.0000000000
     29594      9865  TIP3      H1            -35.1446105720      -33.7370624159        7.4269536648  W2        10017           0.0000000000
     29595      9865  TIP3      H2            -33.8012405720      -33.7735824159        6.7298936648  W2        10017           0.0000000000
     29596      9866  TIP3      OH2           -28.7163505720      -32.9806424159        6.3026536648  W2        10018           0.0000000000
     29597      9866  TIP3      H1            -29.1253205720      -32.1657824159        6.0111336648  W2        10018           0.0000000000
     29598      9866  TIP3      H2            -27.9957305720      -33.1206324159        5.6883636648  W2        10018           0.0000000000
     29599      9867  TIP3      OH2           -29.6141905720      -32.8050024159       17.7907236648  W2        10019           0.0000000000
     29600      9867  TIP3      H1            -30.1768105720      -33.5098424159       18.1115036648  W2        10019           0.0000000000
     29601      9867  TIP3      H2            -28.7878505720      -32.9258124159       18.2584836648  W2        10019           0.0000000000
     29602      9868  TIP3      OH2           -27.7115805720      -33.5346024159        9.1166236648  W2        10020           0.0000000000
     29603      9868  TIP3      H1            -27.9071305720      -32.9289224159        8.4016836648  W2        10020           0.0000000000
     29604      9868  TIP3      H2            -27.5303205720      -34.3680824159        8.6822536648  W2        10020           0.0000000000
     29605      9869  TIP3      OH2           -36.4987605720      -33.2973324159       14.4407736648  W2        10021           0.0000000000
     29606      9869  TIP3      H1            -36.5368205720      -32.8971724159       15.3094836648  W2        10021           0.0000000000
     29607      9869  TIP3      H2            -36.9896505720      -34.1140924159       14.5310636648  W2        10021           0.0000000000
     29608      9870  TIP3      OH2           -33.1330205720      -35.9231024159        1.2393736648  W2        10022           0.0000000000
     29609      9870  TIP3      H1            -33.5639505720      -36.3680924159        1.9691136648  W2        10022           0.0000000000
     29610      9870  TIP3      H2            -33.8511505720      -35.5514724159        0.7271236648  W2        10022           0.0000000000
     29611      9871  TIP3      OH2           -39.8906805720      -36.1811524159        8.2912436648  W2        10023           0.0000000000
     29612      9871  TIP3      H1            -39.2599105720      -36.2099424159        9.0106336648  W2        10023           0.0000000000
     29613      9871  TIP3      H2            -39.4412505720      -36.6062824159        7.5608336648  W2        10023           0.0000000000
     29614      9872  TIP3      OH2           -38.6164705720      -35.4349524159        3.7152836648  W2        10024           0.0000000000
     29615      9872  TIP3      H1            -38.1423005720      -34.8439624159        3.1303736648  W2        10024           0.0000000000
     29616      9872  TIP3      H2            -39.3338305720      -34.9046624159        4.0622936648  W2        10024           0.0000000000
     29617      9873  TIP3      OH2           -28.4476605720      -31.8964724159       13.7878636648  W2        10025           0.0000000000
     29618      9873  TIP3      H1            -28.1241805720      -32.5275024159       13.1449136648  W2        10025           0.0000000000
     29619      9873  TIP3      H2            -28.8877305720      -32.4312524159       14.4486036648  W2        10025           0.0000000000
     29620      9874  TIP3      OH2           -31.6703705720      -35.9689224159        8.5719836648  W2        10026           0.0000000000
     29621      9874  TIP3      H1            -32.5812605720      -35.9122424159        8.8605836648  W2        10026           0.0000000000
     29622      9874  TIP3      H2            -31.1650805720      -36.0293724159        9.3827036648  W2        10026           0.0000000000
     29623      9875  TIP3      OH2           -36.8420305720      -34.3402924159        7.3987436648  W2        10027           0.0000000000
     29624      9875  TIP3      H1            -37.7312305720      -34.2407424159        7.0587036648  W2        10027           0.0000000000
     29625      9875  TIP3      H2            -36.5455405720      -35.1819924159        7.0525336648  W2        10027           0.0000000000
     29626      9876  TIP3      OH2           -33.1888505720      -34.3400324159        5.0552036648  W2        10028           0.0000000000
     29627      9876  TIP3      H1            -32.2573005720      -34.2110324159        5.2335136648  W2        10028           0.0000000000
     29628      9876  TIP3      H2            -33.4038205720      -33.6706024159        4.4056736648  W2        10028           0.0000000000
     29629      9877  TIP3      OH2           -27.2651805720      -36.7342924159       11.8361636648  W2        10029           0.0000000000
     29630      9877  TIP3      H1            -27.9420205720      -36.6029824159       12.5001336648  W2        10029           0.0000000000
     29631      9877  TIP3      H2            -27.7506905720      -36.8893424159       11.0259336648  W2        10029           0.0000000000
     29632      9878  TIP3      OH2           -34.5148305720      -33.1458124159        2.6218136648  W2        10030           0.0000000000
     29633      9878  TIP3      H1            -35.0573205720      -33.5254324159        1.9305736648  W2        10030           0.0000000000
     29634      9878  TIP3      H2            -33.6813405720      -32.9513424159        2.1932236648  W2        10030           0.0000000000
     29635      9879  TIP3      OH2           -36.3796905720      -28.5886224159       17.7209736648  W2        10032           0.0000000000
     29636      9879  TIP3      H1            -35.6474505720      -28.3340324159       18.2824236648  W2        10032           0.0000000000
     29637      9879  TIP3      H2            -37.1598205720      -28.3840824159       18.2365136648  W2        10032           0.0000000000
     29638      9880  TIP3      OH2           -30.3504005720      -33.1816224159       10.4589436648  W2        10033           0.0000000000
     29639      9880  TIP3      H1            -29.7860605720      -33.7279624159        9.9119036648  W2        10033           0.0000000000
     29640      9880  TIP3      H2            -30.4980605720      -33.7034324159       11.2477036648  W2        10033           0.0000000000
     29641      9881  TIP3      OH2           -35.3484305720      -37.0450124159        6.8774236648  W2        10034           0.0000000000
     29642      9881  TIP3      H1            -35.6654805720      -37.9474824159        6.8419636648  W2        10034           0.0000000000
     29643      9881  TIP3      H2            -34.5670205720      -37.0432724159        6.3245836648  W2        10034           0.0000000000
     29644      9882  TIP3      OH2           -31.7238105720      -34.7930124159       12.8729836648  W2        10035           0.0000000000
     29645      9882  TIP3      H1            -32.5592805720      -34.3390624159       12.9832236648  W2        10035           0.0000000000
     29646      9882  TIP3      H2            -31.1997505720      -34.5171624159       13.6249736648  W2        10035           0.0000000000
     29647      9883  TIP3      OH2           -31.1795505720      -28.5802424159        4.5576236648  W2        10036           0.0000000000
     29648      9883  TIP3      H1            -31.9244505720      -29.0877124159        4.2354136648  W2        10036           0.0000000000
     29649      9883  TIP3      H2            -31.3138305720      -28.5314424159        5.5041036648  W2        10036           0.0000000000
     29650      9884  TIP3      OH2           -24.0296605720      -29.4474224159       13.3443836648  W2        10037           0.0000000000
     29651      9884  TIP3      H1            -23.3877805720      -28.9907924159       12.8006036648  W2        10037           0.0000000000
     29652      9884  TIP3      H2            -24.8599705720      -29.3341824159       12.8817936648  W2        10037           0.0000000000
     29653      9885  TIP3      OH2           -27.2818705720      -35.7662524159        2.7568836648  W2        10038           0.0000000000
     29654      9885  TIP3      H1            -28.2204505720      -35.6546924159        2.6057636648  W2        10038           0.0000000000
     29655      9885  TIP3      H2            -26.9846605720      -34.9095624159        3.0634536648  W2        10038           0.0000000000
     29656      9886  TIP3      OH2           -29.6603405720      -28.3959124159       15.7945336648  W2        10039           0.0000000000
     29657      9886  TIP3      H1            -30.0057305720      -28.7776724159       16.6014936648  W2        10039           0.0000000000
     29658      9886  TIP3      H2            -29.8603305720      -27.4625524159       15.8658236648  W2        10039           0.0000000000
     29659      9887  TIP3      OH2           -26.5635205720      -33.8989824159        4.4176236648  W2        10040           0.0000000000
     29660      9887  TIP3      H1            -25.6716205720      -34.0364824159        4.7367436648  W2        10040           0.0000000000
     29661      9887  TIP3      H2            -26.5071605720      -33.1083724159        3.8809736648  W2        10040           0.0000000000
     29662      9888  TIP3      OH2           -36.0547205720      -29.2852424159       10.3274136648  W2        10041           0.0000000000
     29663      9888  TIP3      H1            -35.3100005720      -29.2876724159        9.7260636648  W2        10041           0.0000000000
     29664      9888  TIP3      H2            -35.9770605720      -30.1088624159       10.8089236648  W2        10041           0.0000000000
     29665      9889  TIP3      OH2           -29.0541405720      -27.1218124159        3.5830836648  W2        10042           0.0000000000
     29666      9889  TIP3      H1            -29.3493005720      -26.2950224159        3.9645636648  W2        10042           0.0000000000
     29667      9889  TIP3      H2            -29.7571405720      -27.7411224159        3.7792236648  W2        10042           0.0000000000
     29668      9890  TIP3      OH2           -39.0467505720      -30.8245524159       15.6422636648  W2        10043           0.0000000000
     29669      9890  TIP3      H1            -38.8238905720      -31.2425924159       16.4740136648  W2        10043           0.0000000000
     29670      9890  TIP3      H2            -39.6487405720      -31.4370524159       15.2195436648  W2        10043           0.0000000000
     29671      9891  TIP3      OH2           -27.4099805720      -25.9343624159       15.7450336648  W2        10045           0.0000000000
     29672      9891  TIP3      H1            -28.3105505720      -25.7511024159       15.4774236648  W2        10045           0.0000000000
     29673      9891  TIP3      H2            -27.3758705720      -25.6754324159       16.6659136648  W2        10045           0.0000000000
     29674      9892  TIP3      OH2           -21.6786505720      -33.6895724159        4.1122936648  W2        10046           0.0000000000
     29675      9892  TIP3      H1            -22.2330205720      -34.0857724159        3.4400436648  W2        10046           0.0000000000
     29676      9892  TIP3      H2            -21.5782905720      -32.7790524159        3.8346236648  W2        10046           0.0000000000
     29677      9893  TIP3      OH2           -21.7154505720      -27.8894024159       16.9494436648  W2        10047           0.0000000000
     29678      9893  TIP3      H1            -22.5666005720      -27.6510224159       16.5820836648  W2        10047           0.0000000000
     29679      9893  TIP3      H2            -21.1251105720      -27.9060824159       16.1961536648  W2        10047           0.0000000000
     29680      9894  TIP3      OH2           -23.3834805720      -24.9035324159        4.5775036648  W2        10048           0.0000000000
     29681      9894  TIP3      H1            -23.7563705720      -25.7291524159        4.8865636648  W2        10048           0.0000000000
     29682      9894  TIP3      H2            -23.1061305720      -25.0865924159        3.6798436648  W2        10048           0.0000000000
     29683      9895  TIP3      OH2           -26.2230905720      -30.0955824159       11.5986936648  W2        10049           0.0000000000
     29684      9895  TIP3      H1            -27.1514005720      -30.3273924159       11.5716236648  W2        10049           0.0000000000
     29685      9895  TIP3      H2            -25.7719805720      -30.8726024159       11.2685736648  W2        10049           0.0000000000
     29686      9896  TIP3      OH2           -33.6797805720      -25.7674224159        7.7315636648  W2        10050           0.0000000000
     29687      9896  TIP3      H1            -33.1525605720      -24.9939824159        7.5314436648  W2        10050           0.0000000000
     29688      9896  TIP3      H2            -34.5599305720      -25.5425024159        7.4299636648  W2        10050           0.0000000000
     29689      9897  TIP3      OH2           -37.9250105720      -30.9050124159        2.3188036648  W2        10051           0.0000000000
     29690      9897  TIP3      H1            -37.3090205720      -30.2782924159        2.6982836648  W2        10051           0.0000000000
     29691      9897  TIP3      H2            -38.7867505720      -30.5890324159        2.5904536648  W2        10051           0.0000000000
     29692      9898  TIP3      OH2           -32.2525505720      -28.1044324159        7.3079936648  W2        10052           0.0000000000
     29693      9898  TIP3      H1            -32.4935505720      -27.1789924159        7.3495236648  W2        10052           0.0000000000
     29694      9898  TIP3      H2            -32.9931905720      -28.5633024159        7.7043836648  W2        10052           0.0000000000
     29695      9899  TIP3      OH2           -31.7378905720      -23.9550724159       13.6231036648  W2        10053           0.0000000000
     29696      9899  TIP3      H1            -31.3754205720      -23.1005124159       13.3895436648  W2        10053           0.0000000000
     29697      9899  TIP3      H2            -31.2063705720      -24.2469124159       14.3637336648  W2        10053           0.0000000000
     29698      9900  TIP3      OH2           -33.5694705720      -23.0826724159        6.8532136648  W2        10054           0.0000000000
     29699      9900  TIP3      H1            -34.5194205720      -22.9769324159        6.9045436648  W2        10054           0.0000000000
     29700      9900  TIP3      H2            -33.2176605720      -22.2619324159        7.1979636648  W2        10054           0.0000000000
     29701      9901  TIP3      OH2           -28.1938105720      -27.8560024159       13.3236636648  W2        10055           0.0000000000
     29702      9901  TIP3      H1            -28.6196805720      -28.0838324159       14.1500636648  W2        10055           0.0000000000
     29703      9901  TIP3      H2            -27.6132305720      -28.5948224159       13.1411936648  W2        10055           0.0000000000
     29704      9902  TIP3      OH2           -25.9909205720      -26.9269524159        2.3975636648  W2        10056           0.0000000000
     29705      9902  TIP3      H1            -25.6376105720      -27.3069724159        3.2019136648  W2        10056           0.0000000000
     29706      9902  TIP3      H2            -26.9395705720      -27.0204724159        2.4844936648  W2        10056           0.0000000000
     29707      9903  TIP3      OH2           -25.5353905720      -23.3040524159       15.7931436648  W2        10057           0.0000000000
     29708      9903  TIP3      H1            -26.1370705720      -23.8597624159       15.2977736648  W2        10057           0.0000000000
     29709      9903  TIP3      H2            -25.2540205720      -22.6370724159       15.1668836648  W2        10057           0.0000000000
     29710      9904  TIP3      OH2           -21.4874805720      -22.4477024159        2.5985836648  W2        10058           0.0000000000
     29711      9904  TIP3      H1            -20.7436905720      -21.8616524159        2.4587436648  W2        10058           0.0000000000
     29712      9904  TIP3      H2            -22.1816705720      -21.8791224159        2.9318236648  W2        10058           0.0000000000
     29713      9905  TIP3      OH2           -37.4128005720      -36.0712824159       15.2004036648  W2        10059           0.0000000000
     29714      9905  TIP3      H1            -38.3055705720      -35.7327424159       15.1328036648  W2        10059           0.0000000000
     29715      9905  TIP3      H2            -37.5115205720      -36.9266724159       15.6184836648  W2        10059           0.0000000000
     29716      9906  TIP3      OH2           -25.1249905720      -28.2547524159        4.6243536648  W2        10060           0.0000000000
     29717      9906  TIP3      H1            -25.4022305720      -28.9828224159        5.1804636648  W2        10060           0.0000000000
     29718      9906  TIP3      H2            -24.1976905720      -28.1355524159        4.8296136648  W2        10060           0.0000000000
     29719      9907  TIP3      OH2           -37.7616005720      -24.2668424159       13.6353436648  W2        10061           0.0000000000
     29720      9907  TIP3      H1            -37.5445705720      -25.1986024159       13.6043136648  W2        10061           0.0000000000
     29721      9907  TIP3      H2            -37.5152505720      -23.9923424159       14.5186236648  W2        10061           0.0000000000
     29722      9908  TIP3      OH2           -31.9001405720      -25.8153424159        0.8445636648  W2        10062           0.0000000000
     29723      9908  TIP3      H1            -31.6611605720      -26.5635324159        0.2974536648  W2        10062           0.0000000000
     29724      9908  TIP3      H2            -32.1690105720      -26.2031724159        1.6773436648  W2        10062           0.0000000000
     29725      9909  TIP3      OH2           -32.9630805720      -26.2449624159        3.3008236648  W2        10063           0.0000000000
     29726      9909  TIP3      H1            -32.8162805720      -26.7649824159        4.0909136648  W2        10063           0.0000000000
     29727      9909  TIP3      H2            -32.9659105720      -25.3382024159        3.6074136648  W2        10063           0.0000000000
     29728      9910  TIP3      OH2           -36.5099705720      -28.9926324159        3.8113636648  W2        10064           0.0000000000
     29729      9910  TIP3      H1            -37.1960405720      -28.6403824159        4.3783336648  W2        10064           0.0000000000
     29730      9910  TIP3      H2            -35.9871805720      -28.2296724159        3.5647936648  W2        10064           0.0000000000
     29731      9911  TIP3      OH2           -28.6784605720      -36.3302524159       14.0902636648  W2        10065           0.0000000000
     29732      9911  TIP3      H1            -27.9796705720      -36.2563824159       14.7402336648  W2        10065           0.0000000000
     29733      9911  TIP3      H2            -29.0593205720      -37.1947524159       14.2445536648  W2        10065           0.0000000000
     29734      9912  TIP3      OH2           -27.8939705720      -36.6780824159        5.1874936648  W2        10066           0.0000000000
     29735      9912  TIP3      H1            -27.6741405720      -36.2065424159        4.3840336648  W2        10066           0.0000000000
     29736      9912  TIP3      H2            -27.3355705720      -36.2838224159        5.8575536648  W2        10066           0.0000000000
     29737      9913  TIP3      OH2           -30.2253605720      -24.5476024159        4.0502436648  W2        10067           0.0000000000
     29738      9913  TIP3      H1            -31.0417505720      -24.0506324159        4.1026736648  W2        10067           0.0000000000
     29739      9913  TIP3      H2            -29.6957305720      -24.0722524159        3.4101236648  W2        10067           0.0000000000
     29740      9914  TIP3      OH2           -30.6939805720      -34.9502024159        6.0223336648  W2        10068           0.0000000000
     29741      9914  TIP3      H1            -29.8817205720      -34.4458824159        6.0685036648  W2        10068           0.0000000000
     29742      9914  TIP3      H2            -30.9386805720      -35.0952324159        6.9362936648  W2        10068           0.0000000000
     29743      9915  TIP3      OH2           -30.1583405720      -33.9639324159       15.2069936648  W2        10069           0.0000000000
     29744      9915  TIP3      H1            -30.0393105720      -33.3903924159       15.9640336648  W2        10069           0.0000000000
     29745      9915  TIP3      H2            -29.5028805720      -34.6519924159       15.3217736648  W2        10069           0.0000000000
     29746      9916  TIP3      OH2           -29.8103105720      -37.8689024159        6.9604436648  W2        10070           0.0000000000
     29747      9916  TIP3      H1            -30.1569605720      -37.2518424159        7.6048736648  W2        10070           0.0000000000
     29748      9916  TIP3      H2            -29.1516205720      -37.3683324159        6.4789936648  W2        10070           0.0000000000
     29749      9917  TIP3      OH2           -32.8870505720      -23.5038824159        4.0319336648  W2        10071           0.0000000000
     29750      9917  TIP3      H1            -32.7261805720      -22.7041324159        3.5311936648  W2        10071           0.0000000000
     29751      9917  TIP3      H2            -33.0842705720      -23.1972824159        4.9169936648  W2        10071           0.0000000000
     29752      9918  TIP3      OH2           -34.1526105720      -36.8059624159        3.6476936648  W2        10072           0.0000000000
     29753      9918  TIP3      H1            -34.2361305720      -35.9176524159        3.9943336648  W2        10072           0.0000000000
     29754      9918  TIP3      H2            -33.2625805720      -37.0712924159        3.8793736648  W2        10072           0.0000000000
     29755      9919  TIP3      OH2           -23.9537605720      -36.0569024159       16.0419636648  W2        10073           0.0000000000
     29756      9919  TIP3      H1            -24.8701805720      -35.7947324159       15.9543336648  W2        10073           0.0000000000
     29757      9919  TIP3      H2            -23.6182605720      -36.0600024159       15.1454936648  W2        10073           0.0000000000
     29758      9920  TIP3      OH2           -25.3516605720      -32.3068024159       10.1376936648  W2        10074           0.0000000000
     29759      9920  TIP3      H1            -26.1492205720      -32.7217824159        9.8091936648  W2        10074           0.0000000000
     29760      9920  TIP3      H2            -24.9065505720      -32.9974324159       10.6287436648  W2        10074           0.0000000000
     29761      9921  TIP3      OH2           -35.8940805720      -26.3787424159        2.7081436648  W2        10075           0.0000000000
     29762      9921  TIP3      H1            -35.3019305720      -25.6792624159        2.9843836648  W2        10075           0.0000000000
     29763      9921  TIP3      H2            -35.4347805720      -26.8117924159        1.9886036648  W2        10075           0.0000000000
     29764      9922  TIP3      OH2           -37.5781605720      -33.7144424159        1.8240836648  W2        10076           0.0000000000
     29765      9922  TIP3      H1            -37.6229005720      -32.7751324159        2.0027836648  W2        10076           0.0000000000
     29766      9922  TIP3      H2            -38.4658405720      -33.9499524159        1.5542936648  W2        10076           0.0000000000
     29767      9923  TIP3      OH2           -24.2652005720      -23.0505524159       11.7600436648  W2        10077           0.0000000000
     29768      9923  TIP3      H1            -24.4207705720      -22.3721124159       11.1029736648  W2        10077           0.0000000000
     29769      9923  TIP3      H2            -23.3325605720      -22.9786224159       11.9631036648  W2        10077           0.0000000000
     29770      9924  TIP3      OH2           -36.7699605720      -38.9327824159       10.4971836648  W2        10078           0.0000000000
     29771      9924  TIP3      H1            -36.9989805720      -38.8735324159        9.5696836648  W2        10078           0.0000000000
     29772      9924  TIP3      H2            -37.2126205720      -39.7242324159       10.8035936648  W2        10078           0.0000000000
     29773      9925  TIP3      OH2           -37.8396305720      -24.9920724159        6.6577636648  W2        10079           0.0000000000
     29774      9925  TIP3      H1            -38.6717705720      -24.5198024159        6.6849036648  W2        10079           0.0000000000
     29775      9925  TIP3      H2            -37.2938005720      -24.4823124159        6.0590736648  W2        10079           0.0000000000
     29776      9926  TIP3      OH2           -29.8619605720      -23.9522024159        0.9831636648  W2        10082           0.0000000000
     29777      9926  TIP3      H1            -30.5058605720      -24.5833424159        1.3045336648  W2        10082           0.0000000000
     29778      9926  TIP3      H2            -29.1001305720      -24.4834024159        0.7515136648  W2        10082           0.0000000000
     29779      9927  TIP3      OH2           -25.2576705720      -24.1352124159        1.2169636648  W2        10084           0.0000000000
     29780      9927  TIP3      H1            -24.9746305720      -24.9296924159        1.6696536648  W2        10084           0.0000000000
     29781      9927  TIP3      H2            -24.5178805720      -23.9021124159        0.6560736648  W2        10084           0.0000000000
     29782      9928  TIP3      OH2           -34.3029405720      -28.2257224159        1.0744536648  W2        10086           0.0000000000
     29783      9928  TIP3      H1            -34.2385305720      -29.0197624159        1.6050936648  W2        10086           0.0000000000
     29784      9928  TIP3      H2            -33.6500205720      -28.3444424159        0.3846536648  W2        10086           0.0000000000
     29785      9929  TIP3      OH2           -28.9506005720      -27.1785524159        0.8102536648  W2        10088           0.0000000000
     29786      9929  TIP3      H1            -29.2191905720      -26.9983424159        1.7111436648  W2        10088           0.0000000000
     29787      9929  TIP3      H2            -29.1570405720      -28.1039324159        0.6788336648  W2        10088           0.0000000000
     29788      9930  TIP3      OH2           -26.2541805720      -28.6837524159       15.7578636648  W2        10089           0.0000000000
     29789      9930  TIP3      H1            -25.5087005720      -28.0953824159       15.6382636648  W2        10089           0.0000000000
     29790      9930  TIP3      H2            -27.0115005720      -28.1017824159       15.8211736648  W2        10089           0.0000000000
     29791      9931  TIP3      OH2           -33.1535605720      -30.2531024159        3.3802536648  W2        10091           0.0000000000
     29792      9931  TIP3      H1            -33.6133605720      -30.7372724159        4.0661036648  W2        10091           0.0000000000
     29793      9931  TIP3      H2            -32.8986905720      -30.9215624159        2.7443036648  W2        10091           0.0000000000
     29794      9932  TIP3      OH2           -33.8646305720      -32.3603924159       15.7362136648  W2        10092           0.0000000000
     29795      9932  TIP3      H1            -34.4830205720      -31.6857324159       16.0166836648  W2        10092           0.0000000000
     29796      9932  TIP3      H2            -33.5205105720      -32.0390024159       14.9028336648  W2        10092           0.0000000000
     29797      9933  TIP3      OH2           -32.0825205720      -32.0099224159        1.6425736648  W2        10093           0.0000000000
     29798      9933  TIP3      H1            -32.2630205720      -32.1648024159        0.7154036648  W2        10093           0.0000000000
     29799      9933  TIP3      H2            -31.1324705720      -31.9020524159        1.6873636648  W2        10093           0.0000000000
     29800      9934  TIP3      OH2           -22.6926905720      -29.6555024159        1.0883836648  W2        10095           0.0000000000
     29801      9934  TIP3      H1            -22.9662105720      -30.0799524159        0.2752136648  W2        10095           0.0000000000
     29802      9934  TIP3      H2            -22.6532805720      -28.7240524159        0.8714236648  W2        10095           0.0000000000
     29803      9935  TIP3      OH2           -33.5252605720      -35.0053124159       16.8185236648  W2        10096           0.0000000000
     29804      9935  TIP3      H1            -33.3751705720      -35.7341824159       16.2164936648  W2        10096           0.0000000000
     29805      9935  TIP3      H2            -33.5230205720      -34.2281424159       16.2597436648  W2        10096           0.0000000000
     29806      9936  TIP3      OH2           -33.1126905720      -36.6357324159       14.3112636648  W2        10097           0.0000000000
     29807      9936  TIP3      H1            -32.5769405720      -36.1840624159       13.6591936648  W2        10097           0.0000000000
     29808      9936  TIP3      H2            -33.9647305720      -36.7437524159       13.8886736648  W2        10097           0.0000000000
     29809      9937  TIP3      OH2           -31.5308505720      -31.1961124159       14.5507836648  W2        10098           0.0000000000
     29810      9937  TIP3      H1            -30.7803705720      -31.3523624159       13.9775636648  W2        10098           0.0000000000
     29811      9937  TIP3      H2            -31.8700205720      -30.3444524159       14.2753336648  W2        10098           0.0000000000
     29812      9938  TIP3      OH2           -25.7985105720      -30.5924124159       17.6565836648  W2        10100           0.0000000000
     29813      9938  TIP3      H1            -26.0800105720      -29.8829524159       17.0789636648  W2        10100           0.0000000000
     29814      9938  TIP3      H2            -24.8560805720      -30.6651124159       17.5057036648  W2        10100           0.0000000000
     29815      9939  TIP3      OH2           -32.3071405720      -39.1791624159       14.7426236648  W2        10102           0.0000000000
     29816      9939  TIP3      H1            -32.4051805720      -38.2328424159       14.6372436648  W2        10102           0.0000000000
     29817      9939  TIP3      H2            -33.0495205720      -39.5517824159       14.2669736648  W2        10102           0.0000000000
     29818      9940  TIP3      OH2           -28.3274305720      -35.7302724159       17.3818136648  W2        10104           0.0000000000
     29819      9940  TIP3      H1            -29.2748905720      -35.6983024159       17.5141436648  W2        10104           0.0000000000
     29820      9940  TIP3      H2            -28.0147605720      -36.3555624159       18.0356336648  W2        10104           0.0000000000
     29821      9941  TIP3      OH2           -32.0853305720      -39.8854224159       17.4139036648  W2        10107           0.0000000000
     29822      9941  TIP3      H1            -31.3734905720      -40.5252024159       17.3998136648  W2        10107           0.0000000000
     29823      9941  TIP3      H2            -32.1862905720      -39.6185924159       16.5002136648  W2        10107           0.0000000000
     29824      9942  TIP3      OH2           -32.1853505720      -21.3195524159        2.6439336648  W2        10109           0.0000000000
     29825      9942  TIP3      H1            -31.2522805720      -21.1616824159        2.7877736648  W2        10109           0.0000000000
     29826      9942  TIP3      H2            -32.4494705720      -20.6442524159        2.0190836648  W2        10109           0.0000000000
     29827      9943  TIP3      OH2           -38.6168605720      -26.6831724159        2.1267436648  W2        10110           0.0000000000
     29828      9943  TIP3      H1            -37.7029405720      -26.6042824159        2.4001336648  W2        10110           0.0000000000
     29829      9943  TIP3      H2            -38.6095505720      -27.3702124159        1.4603036648  W2        10110           0.0000000000
     29830      9944  TIP3      OH2           -39.9678005720      -21.2903224159        7.2041336648  W2        10111           0.0000000000
     29831      9944  TIP3      H1            -40.6150905720      -21.7521524159        6.6712536648  W2        10111           0.0000000000
     29832      9944  TIP3      H2            -39.6133405720      -21.9619924159        7.7867536648  W2        10111           0.0000000000
     29833      9945  TIP3      OH2           -39.0978805720      -23.2096224159        9.0087536648  W2        10112           0.0000000000
     29834      9945  TIP3      H1            -39.4322005720      -24.0898924159        9.1807736648  W2        10112           0.0000000000
     29835      9945  TIP3      H2            -38.8756405720      -22.8641224159        9.8733136648  W2        10112           0.0000000000
     29836      9946  TIP3      OH2           -21.5494005720      -22.3999824159       11.9892336648  W2        10113           0.0000000000
     29837      9946  TIP3      H1            -21.5707305720      -22.2151424159       12.9281736648  W2        10113           0.0000000000
     29838      9946  TIP3      H2            -20.8587805720      -21.8315824159       11.6483736648  W2        10113           0.0000000000
     29839      9947  TIP3      OH2           -21.9861105720      -22.8328724159       14.9111436648  W2        10114           0.0000000000
     29840      9947  TIP3      H1            -22.4732405720      -23.5684624159       14.5398836648  W2        10114           0.0000000000
     29841      9947  TIP3      H2            -21.4368405720      -23.2264824159       15.5890836648  W2        10114           0.0000000000
     29842      9948  TIP3      OH2           -22.2344105720      -28.7866924159        5.0634236648  W2        10116           0.0000000000
     29843      9948  TIP3      H1            -21.3842705720      -28.3656024159        5.1905836648  W2        10116           0.0000000000
     29844      9948  TIP3      H2            -22.2289005720      -29.5266824159        5.6705636648  W2        10116           0.0000000000
     29845      9949  TIP3      OH2           -21.8398505720      -30.7329524159        6.8869936648  W2        10117           0.0000000000
     29846      9949  TIP3      H1            -22.5663905720      -31.2126924159        7.2847536648  W2        10117           0.0000000000
     29847      9949  TIP3      H2            -21.2585205720      -30.5274824159        7.6191536648  W2        10117           0.0000000000
     29848      9950  TIP3      OH2           -22.0807305720      -27.9482024159       11.8347536648  W2        10118           0.0000000000
     29849      9950  TIP3      H1            -21.2473105720      -28.3262024159       11.5541136648  W2        10118           0.0000000000
     29850      9950  TIP3      H2            -21.9687005720      -27.0050824159       11.7156636648  W2        10118           0.0000000000
     29851      9951  TIP3      OH2           -23.5945005720      -25.0704524159       14.1415936648  W2        10119           0.0000000000
     29852      9951  TIP3      H1            -24.2419705720      -24.7453024159       14.7671136648  W2        10119           0.0000000000
     29853      9951  TIP3      H2            -24.1121005720      -25.5106824159       13.4674236648  W2        10119           0.0000000000
     29854      9952  TIP3      OH2           -21.5715405720      -30.8321024159        3.2781236648  W2        10120           0.0000000000
     29855      9952  TIP3      H1            -22.0934305720      -30.4756924159        2.5592136648  W2        10120           0.0000000000
     29856      9952  TIP3      H2            -21.6046205720      -30.1573224159        3.9562136648  W2        10120           0.0000000000
     29857      9953  TIP3      OH2           -23.2226405720      -33.5925424159        1.8288336648  W2        10121           0.0000000000
     29858      9953  TIP3      H1            -23.1262005720      -32.9258424159        1.1488036648  W2        10121           0.0000000000
     29859      9953  TIP3      H2            -23.3626805720      -34.4079124159        1.3473836648  W2        10121           0.0000000000
     29860      9954  TIP3      OH2           -24.0531705720      -32.2123024159        7.4498636648  W2        10122           0.0000000000
     29861      9954  TIP3      H1            -24.2032905720      -33.1574424159        7.4296436648  W2        10122           0.0000000000
     29862      9954  TIP3      H2            -24.4067205720      -31.9311624159        8.2937736648  W2        10122           0.0000000000
     29863      9955  TIP3      OH2           -39.0179305720      -30.1340824159       11.4602436648  W2        10123           0.0000000000
     29864      9955  TIP3      H1            -38.8336405720      -30.2159124159       10.5245336648  W2        10123           0.0000000000
     29865      9955  TIP3      H2            -38.1686405720      -30.2583824159       11.8838836648  W2        10123           0.0000000000
     29866      9956  TIP3      OH2           -23.1968805720      -30.2419724159       17.0886936648  W2        10124           0.0000000000
     29867      9956  TIP3      H1            -22.6141505720      -30.9767424159       17.2804136648  W2        10124           0.0000000000
     29868      9956  TIP3      H2            -22.6329505720      -29.4699424159       17.1352736648  W2        10124           0.0000000000
     29869      9957  TIP3      OH2           -21.7001705720      -32.3393924159       17.7732336648  W2        10125           0.0000000000
     29870      9957  TIP3      H1            -22.5635005720      -32.7181824159       17.6077036648  W2        10125           0.0000000000
     29871      9957  TIP3      H2            -21.0958005720      -33.0779124159       17.6988136648  W2        10125           0.0000000000
     29872      9958  TIP3      OH2           -23.9752605720      -36.1845624159        0.9463836648  W2        10126           0.0000000000
     29873      9958  TIP3      H1            -23.3646805720      -36.5558824159        1.5832036648  W2        10126           0.0000000000
     29874      9958  TIP3      H2            -24.8121105720      -36.6058724159        1.1423836648  W2        10126           0.0000000000
     29875      9959  TIP3      OH2           -24.3426905720      -34.6297224159        5.9123736648  W2        10127           0.0000000000
     29876      9959  TIP3      H1            -24.0629805720      -35.5366824159        6.0365436648  W2        10127           0.0000000000
     29877      9959  TIP3      H2            -23.5835205720      -34.1955724159        5.5232936648  W2        10127           0.0000000000
     29878      9960  TIP3      OH2           -23.7308605720      -34.0479824159       11.3482636648  W2        10128           0.0000000000
     29879      9960  TIP3      H1            -22.7980605720      -33.8359924159       11.3138636648  W2        10128           0.0000000000
     29880      9960  TIP3      H2            -23.9661105720      -33.9467724159       12.2705636648  W2        10128           0.0000000000
     29881      9961  TIP3      OH2           -23.7016705720      -33.3114524159       14.1242036648  W2        10129           0.0000000000
     29882      9961  TIP3      H1            -24.5445405720      -33.0434124159       14.4901836648  W2        10129           0.0000000000
     29883      9961  TIP3      H2            -23.2592405720      -32.4892624159       13.9133136648  W2        10129           0.0000000000
     29884      9962  TIP3      OH2           -39.4204505720      -34.8635824159       17.6011236648  W2        10130           0.0000000000
     29885      9962  TIP3      H1            -38.5009605720      -34.9857524159       17.8374336648  W2        10130           0.0000000000
     29886      9962  TIP3      H2            -39.8700005720      -35.6136124159       17.9904736648  W2        10130           0.0000000000
     29887      9963  TIP3      OH2           -23.7292105720      -37.3667924159        5.9605736648  W2        10132           0.0000000000
     29888      9963  TIP3      H1            -23.5467105720      -37.8156424159        6.7860736648  W2        10132           0.0000000000
     29889      9963  TIP3      H2            -24.3289205720      -37.9513524159        5.4970336648  W2        10132           0.0000000000
     29890      9964  TIP3      OH2           -38.1992005720      -36.5514224159       10.4924136648  W2        10133           0.0000000000
     29891      9964  TIP3      H1            -37.7540405720      -37.3431724159       10.7943836648  W2        10133           0.0000000000
     29892      9964  TIP3      H2            -37.7329005720      -35.8349024159       10.9229736648  W2        10133           0.0000000000
     29893      9965  TIP3      OH2           -39.8951705720      -33.5521224159       11.5614336648  W2        10134           0.0000000000
     29894      9965  TIP3      H1            -39.4031905720      -33.7730724159       10.7706336648  W2        10134           0.0000000000
     29895      9965  TIP3      H2            -39.5330805720      -32.7117824159       11.8423836648  W2        10134           0.0000000000
     29896      9966  TIP3      OH2           -21.8625905720      -37.2989824159        2.4886036648  W2        10136           0.0000000000
     29897      9966  TIP3      H1            -21.4503305720      -38.0204124159        2.0134036648  W2        10136           0.0000000000
     29898      9966  TIP3      H2            -21.1809405720      -36.6295224159        2.5470336648  W2        10136           0.0000000000
     29899      9967  TIP3      OH2           -39.5815205720      -37.2942124159        5.6156736648  W2        10137           0.0000000000
     29900      9967  TIP3      H1            -40.5066805720      -37.0855524159        5.4862236648  W2        10137           0.0000000000
     29901      9967  TIP3      H2            -39.1275305720      -36.8101324159        4.9259036648  W2        10137           0.0000000000
     29902      9968  TIP3      OH2           -24.8108005720      -22.3100424159        7.5614136648  W2        10138           0.0000000000
     29903      9968  TIP3      H1            -24.1585105720      -22.6578324159        6.9533236648  W2        10138           0.0000000000
     29904      9968  TIP3      H2            -24.3004205720      -21.8217224159        8.2073836648  W2        10138           0.0000000000
     29905      9969  TIP3      OH2           -39.6179805720      -38.5563124159       13.9599236648  W2        10139           0.0000000000
     29906      9969  TIP3      H1            -40.2829305720      -38.8022824159       14.6030136648  W2        10139           0.0000000000
     29907      9969  TIP3      H2            -40.0608505720      -37.9342724159       13.3827236648  W2        10139           0.0000000000
     29908      9970  TIP3      OH2           -34.4717605720      -24.4067824159       14.3629036648  W2        10141           0.0000000000
     29909      9970  TIP3      H1            -34.8966505720      -23.5969324159       14.0803636648  W2        10141           0.0000000000
     29910      9970  TIP3      H2            -33.5674805720      -24.3213724159       14.0608836648  W2        10141           0.0000000000
     29911      9971  TIP3      OH2           -30.1606205720      -23.0077824159       17.3222736648  W2        10142           0.0000000000
     29912      9971  TIP3      H1            -29.9758705720      -23.3411724159       18.2003036648  W2        10142           0.0000000000
     29913      9971  TIP3      H2            -29.3141705720      -22.6979224159       17.0001936648  W2        10142           0.0000000000
     29914      9972  TIP3      OH2           -27.8155805720      -21.7218924159       16.5664136648  W2        10143           0.0000000000
     29915      9972  TIP3      H1            -27.1386905720      -22.3546624159       16.3263336648  W2        10143           0.0000000000
     29916      9972  TIP3      H2            -27.4937005720      -21.3208424159       17.3737436648  W2        10143           0.0000000000
     29917      9973  TIP3      OH2           -22.8982005720      -39.1323424159       15.6459136648  W2        10144           0.0000000000
     29918      9973  TIP3      H1            -23.7108505720      -38.8073124159       15.2583836648  W2        10144           0.0000000000
     29919      9973  TIP3      H2            -22.6653505720      -39.8924924159       15.1128236648  W2        10144           0.0000000000
     29920      9974  TIP3      OH2           -37.0700905720      -21.1503924159       14.4104336648  W2        10145           0.0000000000
     29921      9974  TIP3      H1            -37.7904505720      -20.7102924159       13.9592036648  W2        10145           0.0000000000
     29922      9974  TIP3      H2            -37.4356905720      -21.4009224159       15.2588336648  W2        10145           0.0000000000
     29923      9975  TIP3      OH2           -34.6028305720      -21.5500024159       13.4401536648  W2        10146           0.0000000000
     29924      9975  TIP3      H1            -35.4676105720      -21.4781524159       13.8441636648  W2        10146           0.0000000000
     29925      9975  TIP3      H2            -34.6579305720      -21.0032724159       12.6564036648  W2        10146           0.0000000000
     29926      9976  TIP3      OH2           -29.8922705720      -21.6621124159       12.6157536648  W2        10147           0.0000000000
     29927      9976  TIP3      H1            -30.3488705720      -21.1331424159       11.9615936648  W2        10147           0.0000000000
     29928      9976  TIP3      H2            -29.7294705720      -21.0589724159       13.3409836648  W2        10147           0.0000000000
     29929      9977  TIP3      OH2           -27.5646405720      -22.7841524159       13.5607836648  W2        10148           0.0000000000
     29930      9977  TIP3      H1            -28.4692705720      -22.6191324159       13.2949936648  W2        10148           0.0000000000
     29931      9977  TIP3      H2            -27.1357805720      -21.9309324159       13.4951236648  W2        10148           0.0000000000
     29932      9978  TIP3      OH2           -24.9604505720      -21.2142424159       13.8555636648  W2        10149           0.0000000000
     29933      9978  TIP3      H1            -25.1422505720      -20.2983524159       13.6450536648  W2        10149           0.0000000000
     29934      9978  TIP3      H2            -24.7836705720      -21.6245324159       13.0090236648  W2        10149           0.0000000000
     29935      9979  TIP3      OH2           -37.6552805720      -22.5271424159       11.3206136648  W2        10150           0.0000000000
     29936      9979  TIP3      H1            -37.6736805720      -22.9526324159       12.1778436648  W2        10150           0.0000000000
     29937      9979  TIP3      H2            -36.8504905720      -22.8456424159       10.9118336648  W2        10150           0.0000000000
     29938      9980  TIP3      OH2           -35.5139705720      -23.8172724159        9.9756036648  W2        10151           0.0000000000
     29939      9980  TIP3      H1            -35.7329005720      -24.7335324159       10.1452036648  W2        10151           0.0000000000
     29940      9980  TIP3      H2            -34.6897505720      -23.6772324159       10.4417436648  W2        10151           0.0000000000
     29941      9981  TIP3      OH2           -32.9767205720      -23.3473424159       10.8244036648  W2        10152           0.0000000000
     29942      9981  TIP3      H1            -32.7641505720      -24.2354424159       10.5374936648  W2        10152           0.0000000000
     29943      9981  TIP3      H2            -32.9122105720      -23.3815724159       11.7788036648  W2        10152           0.0000000000
     29944      9982  TIP3      OH2           -29.4683505720      -37.6832824159        9.9687336648  W2        10153           0.0000000000
     29945      9982  TIP3      H1            -30.1426705720      -38.3127224159       10.2243136648  W2        10153           0.0000000000
     29946      9982  TIP3      H2            -28.9044305720      -38.1673924159        9.3655236648  W2        10153           0.0000000000
     29947      9983  TIP3      OH2           -24.3256305720      -39.5758824159       10.0814436648  W2        10154           0.0000000000
     29948      9983  TIP3      H1            -23.7218705720      -39.0283424159        9.5795436648  W2        10154           0.0000000000
     29949      9983  TIP3      H2            -25.1954305720      -39.2568424159        9.8408536648  W2        10154           0.0000000000
     29950      9984  TIP3      OH2           -22.5985905720      -38.4370124159        8.4145336648  W2        10155           0.0000000000
     29951      9984  TIP3      H1            -21.9868405720      -38.9514424159        7.8878936648  W2        10155           0.0000000000
     29952      9984  TIP3      H2            -22.2162505720      -37.5598024159        8.4379736648  W2        10155           0.0000000000
     29953      9985  TIP3      OH2           -37.1416005720      -39.0492524159        7.7907236648  W2        10156           0.0000000000
     29954      9985  TIP3      H1            -37.9186205720      -39.2837624159        7.2833136648  W2        10156           0.0000000000
     29955      9985  TIP3      H2            -36.6112405720      -39.8460424159        7.7995236648  W2        10156           0.0000000000
     29956      9986  TIP3      OH2           -38.3052605720      -39.2514424159        3.5943336648  W2        10157           0.0000000000
     29957      9986  TIP3      H1            -37.8661905720      -38.6403924159        3.0026836648  W2        10157           0.0000000000
     29958      9986  TIP3      H2            -38.9390205720      -38.7130324159        4.0683336648  W2        10157           0.0000000000
     29959      9987  TIP3      OH2           -32.5623405720      -39.1225424159        7.6040336648  W2        10158           0.0000000000
     29960      9987  TIP3      H1            -31.6880005720      -38.7341124159        7.5744636648  W2        10158           0.0000000000
     29961      9987  TIP3      H2            -32.6982605720      -39.3377624159        8.5267536648  W2        10158           0.0000000000
     29962      9988  TIP3      OH2           -27.0055005720      -39.0925624159        9.2532036648  W2        10159           0.0000000000
     29963      9988  TIP3      H1            -26.9293405720      -38.9974024159        8.3038036648  W2        10159           0.0000000000
     29964      9988  TIP3      H2            -27.2805805720      -40.0002724159        9.3821136648  W2        10159           0.0000000000
     29965      9989  TIP3      OH2           -25.6522405720      -39.0667824159        4.9457036648  W2        10160           0.0000000000
     29966      9989  TIP3      H1            -26.3551305720      -38.4518624159        4.7358436648  W2        10160           0.0000000000
     29967      9989  TIP3      H2            -26.0971005720      -39.9041124159        5.0767936648  W2        10160           0.0000000000
     29968      9990  TIP3      OH2           -38.4043105720      -23.3032224159        4.4918436648  W2        10161           0.0000000000
     29969      9990  TIP3      H1            -39.0893205720      -23.3413324159        3.8243536648  W2        10161           0.0000000000
     29970      9990  TIP3      H2            -38.4005905720      -22.3904624159        4.7800536648  W2        10161           0.0000000000
     29971      9991  TIP3      OH2           -36.4443505720      -37.3352924159        2.0367436648  W2        10162           0.0000000000
     29972      9991  TIP3      H1            -35.9530105720      -37.9650524159        1.5092936648  W2        10162           0.0000000000
     29973      9991  TIP3      H2            -35.8207205720      -37.0393524159        2.6998636648  W2        10162           0.0000000000
     29974      9992  TIP3      OH2           -31.4183405720      -37.0421424159        4.4937936648  W2        10163           0.0000000000
     29975      9992  TIP3      H1            -31.2402105720      -37.6888224159        5.1766536648  W2        10163           0.0000000000
     29976      9992  TIP3      H2            -31.4717205720      -36.2083724159        4.9609036648  W2        10163           0.0000000000
     29977      9993  TIP3      OH2           -29.5399605720      -22.0937324159        2.8894636648  W2        10164           0.0000000000
     29978      9993  TIP3      H1            -28.6739405720      -21.7269924159        2.7112836648  W2        10164           0.0000000000
     29979      9993  TIP3      H2            -29.7866805720      -22.5329324159        2.0755436648  W2        10164           0.0000000000
     29980      9994  TIP3      OH2           -22.8310005720      -22.5307024159        5.5685736648  W2        10165           0.0000000000
     29981      9994  TIP3      H1            -23.0252905720      -23.2784924159        5.0035336648  W2        10165           0.0000000000
     29982      9994  TIP3      H2            -22.8699905720      -21.7726924159        4.9853636648  W2        10165           0.0000000000
     29983      9995  TIP3      OH2           -37.1838005720      -38.5350624159       17.3083436648  W2        10166           0.0000000000
     29984      9995  TIP3      H1            -37.5499805720      -39.3008024159       17.7508136648  W2        10166           0.0000000000
     29985      9995  TIP3      H2            -36.2709505720      -38.5060424159       17.5948536648  W2        10166           0.0000000000
     29986      9996  TIP3      OH2           -36.5861905720      -22.3831424159        1.5170536648  W2        10168           0.0000000000
     29987      9996  TIP3      H1            -36.8537305720      -22.0968524159        2.3903636648  W2        10168           0.0000000000
     29988      9996  TIP3      H2            -35.8149305720      -22.9292224159        1.6693036648  W2        10168           0.0000000000
     29989      9997  TIP3      OH2           -23.6133805720      -23.7794624159       17.7187536648  W2        10170           0.0000000000
     29990      9997  TIP3      H1            -24.3951905720      -23.9656624159       17.1988136648  W2        10170           0.0000000000
     29991      9997  TIP3      H2            -23.6853905720      -22.8500324159       17.9360036648  W2        10170           0.0000000000
     29992      9998  TIP3      OH2            -9.2073405720      -29.8930224159        7.7494736648  W2        10171           0.0000000000
     29993      9998  TIP3      H1             -9.1182305720      -28.9492024159        7.6171836648  W2        10171           0.0000000000
     29994      9998  TIP3      H2             -9.8455805720      -30.1683824159        7.0914136648  W2        10171           0.0000000000
     29995      9999  TIP3      OH2           -10.2742105720      -30.6379524159       11.1682936648  W2        10172           0.0000000000
     29996      9999  TIP3      H1            -10.3124605720      -31.2843224159       11.8732536648  W2        10172           0.0000000000
     29997      9999  TIP3      H2            -10.5965605720      -31.1045124159       10.3971636648  W2        10172           0.0000000000
     29998     10000  TIP3      OH2           -17.9057105720      -31.0237424159       12.7612836648  W2        10173           0.0000000000
     29999     10000  TIP3      H1            -17.8645005720      -31.6494124159       13.4845236648  W2        10173           0.0000000000
     30000     10000  TIP3      H2            -17.2029405720      -30.3998824159       12.9433236648  W2        10173           0.0000000000
     30001     10001  TIP3      OH2            -6.5681905720      -27.6989124159        9.4698036648  W2        10174           0.0000000000
     30002     10001  TIP3      H1             -7.0089205720      -28.4193124159        9.9203636648  W2        10174           0.0000000000
     30003     10001  TIP3      H2             -6.5812205720      -26.9781924159       10.0995736648  W2        10174           0.0000000000
     30004     10002  TIP3      OH2           -16.9824005720      -26.5738524159       11.2961936648  W2        10175           0.0000000000
     30005     10002  TIP3      H1            -17.3518805720      -27.3758024159       10.9266236648  W2        10175           0.0000000000
     30006     10002  TIP3      H2            -16.0412905720      -26.7423624159       11.3425336648  W2        10175           0.0000000000
     30007     10003  TIP3      OH2           -20.3723505720      -32.9135924159        6.6890736648  W2        10176           0.0000000000
     30008     10003  TIP3      H1            -20.8200105720      -32.0677224159        6.6707236648  W2        10176           0.0000000000
     30009     10003  TIP3      H2            -20.9332305720      -33.4931724159        6.1735836648  W2        10176           0.0000000000
     30010     10004  TIP3      OH2           -19.6617405720      -30.7516324159        8.8148736648  W2        10177           0.0000000000
     30011     10004  TIP3      H1            -19.4483905720      -31.5214724159        9.3421736648  W2        10177           0.0000000000
     30012     10004  TIP3      H2            -18.9239805720      -30.6619624159        8.2116336648  W2        10177           0.0000000000
     30013     10005  TIP3      OH2            -9.4566405720      -22.5947424159        9.6818436648  W2        10178           0.0000000000
     30014     10005  TIP3      H1             -8.8370005720      -23.2712724159        9.4087636648  W2        10178           0.0000000000
     30015     10005  TIP3      H2             -9.6649005720      -22.8126624159       10.5903336648  W2        10178           0.0000000000
     30016     10006  TIP3      OH2           -11.8847705720      -28.2058124159       11.5743936648  W2        10179           0.0000000000
     30017     10006  TIP3      H1            -11.5809805720      -28.8916724159       10.9798036648  W2        10179           0.0000000000
     30018     10006  TIP3      H2            -11.1633705720      -28.0869424159       12.1921936648  W2        10179           0.0000000000
     30019     10007  TIP3      OH2            -3.2217905720      -36.6042824159       12.4350136648  W2        10180           0.0000000000
     30020     10007  TIP3      H1             -3.1725705720      -35.9941624159       13.1709236648  W2        10180           0.0000000000
     30021     10007  TIP3      H2             -2.7962805720      -36.1431924159       11.7121236648  W2        10180           0.0000000000
     30022     10008  TIP3      OH2            -8.7440705720      -33.8115724159       11.9018736648  W2        10181           0.0000000000
     30023     10008  TIP3      H1             -8.6014805720      -34.7578724159       11.9220336648  W2        10181           0.0000000000
     30024     10008  TIP3      H2             -8.8501705720      -33.6045924159       10.9733636648  W2        10181           0.0000000000
     30025     10009  TIP3      OH2           -15.5892405720      -35.7099324159        9.1743536648  W2        10182           0.0000000000
     30026     10009  TIP3      H1            -15.5461305720      -34.8500824159        8.7559836648  W2        10182           0.0000000000
     30027     10009  TIP3      H2            -16.0468305720      -36.2624624159        8.5406736648  W2        10182           0.0000000000
     30028     10010  TIP3      OH2            -7.8669705720      -35.5793724159        7.5751836648  W2        10183           0.0000000000
     30029     10010  TIP3      H1             -7.2205405720      -35.9080524159        8.1999436648  W2        10183           0.0000000000
     30030     10010  TIP3      H2             -7.3570305720      -35.0614724159        6.9523236648  W2        10183           0.0000000000
     30031     10011  TIP3      OH2           -18.9690905720      -33.3133524159        9.9364936648  W2        10184           0.0000000000
     30032     10011  TIP3      H1            -18.3154305720      -33.8631824159       10.3685036648  W2        10184           0.0000000000
     30033     10011  TIP3      H2            -18.9451605720      -33.5874524159        9.0196936648  W2        10184           0.0000000000
     30034     10012  TIP3      OH2           -13.8126405720      -31.7632224159        9.1516436648  W2        10185           0.0000000000
     30035     10012  TIP3      H1            -13.1965405720      -32.2896824159        9.6610436648  W2        10185           0.0000000000
     30036     10012  TIP3      H2            -14.3987605720      -32.4033524159        8.7480036648  W2        10185           0.0000000000
     30037     10013  TIP3      OH2            -2.8303305720      -35.1263624159       14.6709936648  W2        10186           0.0000000000
     30038     10013  TIP3      H1             -3.5188705720      -34.4682924159       14.5756536648  W2        10186           0.0000000000
     30039     10013  TIP3      H2             -2.8148705720      -35.3235724159       15.6075336648  W2        10186           0.0000000000
     30040     10014  TIP3      OH2           -16.7790505720      -36.7920924159       13.2484336648  W2        10187           0.0000000000
     30041     10014  TIP3      H1            -16.9978805720      -36.2620324159       12.4820336648  W2        10187           0.0000000000
     30042     10014  TIP3      H2            -17.4469605720      -36.5655424159       13.8955736648  W2        10187           0.0000000000
     30043     10015  TIP3      OH2            -9.4100705720      -27.2919824159        6.7923436648  W2        10188           0.0000000000
     30044     10015  TIP3      H1             -9.7055605720      -27.6147524159        5.9410336648  W2        10188           0.0000000000
     30045     10015  TIP3      H2             -9.7342905720      -26.3923124159        6.8336036648  W2        10188           0.0000000000
     30046     10016  TIP3      OH2           -14.2099105720      -29.1165224159       13.5358036648  W2        10189           0.0000000000
     30047     10016  TIP3      H1            -14.9500005720      -28.5183724159       13.6393236648  W2        10189           0.0000000000
     30048     10016  TIP3      H2            -13.4959605720      -28.5625624159       13.2201636648  W2        10189           0.0000000000
     30049     10017  TIP3      OH2            -6.1031305720      -36.2884424159        9.5557736648  W2        10190           0.0000000000
     30050     10017  TIP3      H1             -6.3183305720      -37.0541024159       10.0883736648  W2        10190           0.0000000000
     30051     10017  TIP3      H2             -5.4473905720      -35.8159824159       10.0686236648  W2        10190           0.0000000000
     30052     10018  TIP3      OH2           -17.1853205720      -34.8999124159       11.2006536648  W2        10191           0.0000000000
     30053     10018  TIP3      H1            -16.5716905720      -34.2671524159       11.5738936648  W2        10191           0.0000000000
     30054     10018  TIP3      H2            -16.6732505720      -35.3724124159       10.5443436648  W2        10191           0.0000000000
     30055     10019  TIP3      OH2           -15.8024805720      -27.1522224159       14.3229536648  W2        10192           0.0000000000
     30056     10019  TIP3      H1            -15.8077205720      -26.2728724159       13.9448836648  W2        10192           0.0000000000
     30057     10019  TIP3      H2            -16.6560705720      -27.2358124159       14.7479436648  W2        10192           0.0000000000
     30058     10020  TIP3      OH2           -19.6813905720      -27.4814324159        5.1048836648  W2        10193           0.0000000000
     30059     10020  TIP3      H1            -19.9533005720      -27.2523324159        4.2161736648  W2        10193           0.0000000000
     30060     10020  TIP3      H2            -19.6358205720      -26.6435524159        5.5654136648  W2        10193           0.0000000000
     30061     10021  TIP3      OH2            -6.0564205720      -25.8598424159       11.8177336648  W2        10194           0.0000000000
     30062     10021  TIP3      H1             -6.9980505720      -25.8014524159       11.9794236648  W2        10194           0.0000000000
     30063     10021  TIP3      H2             -5.7798105720      -24.9537924159       11.6807036648  W2        10194           0.0000000000
     30064     10022  TIP3      OH2            -5.7557205720      -37.5733124159       13.2351236648  W2        10195           0.0000000000
     30065     10022  TIP3      H1             -6.4918005720      -36.9626024159       13.1972536648  W2        10195           0.0000000000
     30066     10022  TIP3      H2             -5.0723205720      -37.1584124159       12.7087636648  W2        10195           0.0000000000
     30067     10023  TIP3      OH2           -12.7525805720      -39.4865824159       10.7009236648  W2        10196           0.0000000000
     30068     10023  TIP3      H1            -12.8701605720      -40.4349824159       10.6467536648  W2        10196           0.0000000000
     30069     10023  TIP3      H2            -13.6075705720      -39.1539724159       10.9740336648  W2        10196           0.0000000000
     30070     10024  TIP3      OH2            -7.8043005720      -24.0784924159        8.4428936648  W2        10197           0.0000000000
     30071     10024  TIP3      H1             -7.3790705720      -24.7857024159        7.9578536648  W2        10197           0.0000000000
     30072     10024  TIP3      H2             -7.4873005720      -23.2772224159        8.0261136648  W2        10197           0.0000000000
     30073     10025  TIP3      OH2            -6.6446505720      -26.1776424159        6.9515536648  W2        10198           0.0000000000
     30074     10025  TIP3      H1             -6.9021705720      -26.8676324159        6.3401436648  W2        10198           0.0000000000
     30075     10025  TIP3      H2             -6.5735705720      -26.6205224159        7.7971436648  W2        10198           0.0000000000
     30076     10026  TIP3      OH2            -4.9586305720      -27.6109724159       15.4289036648  W2        10199           0.0000000000
     30077     10026  TIP3      H1             -4.8190005720      -28.2027224159       14.6896036648  W2        10199           0.0000000000
     30078     10026  TIP3      H2             -4.7913505720      -26.7383824159       15.0727836648  W2        10199           0.0000000000
     30079     10027  TIP3      OH2           -10.4860905720      -30.6490224159        5.2015036648  W2        10200           0.0000000000
     30080     10027  TIP3      H1            -11.1975405720      -30.1140524159        4.8495536648  W2        10200           0.0000000000
     30081     10027  TIP3      H2             -9.7951305720      -30.5938124159        4.5413936648  W2        10200           0.0000000000
     30082     10028  TIP3      OH2           -10.4321705720      -32.1915924159        2.2400036648  W2        10201           0.0000000000
     30083     10028  TIP3      H1             -9.7311805720      -32.1689024159        2.8914036648  W2        10201           0.0000000000
     30084     10028  TIP3      H2            -10.1298805720      -32.8196224159        1.5839336648  W2        10201           0.0000000000
     30085     10029  TIP3      OH2            -3.1167005720      -31.2711724159       13.4949436648  W2        10202           0.0000000000
     30086     10029  TIP3      H1             -3.7692905720      -30.5766124159       13.5840336648  W2        10202           0.0000000000
     30087     10029  TIP3      H2             -2.6516705720      -31.0610824159       12.6851036648  W2        10202           0.0000000000
     30088     10030  TIP3      OH2            -7.0803205720      -30.4396924159        6.1530936648  W2        10203           0.0000000000
     30089     10030  TIP3      H1             -7.8122205720      -30.2113224159        6.7261536648  W2        10203           0.0000000000
     30090     10030  TIP3      H2             -6.6331005720      -31.1534224159        6.6078436648  W2        10203           0.0000000000
     30091     10031  TIP3      OH2            -7.1829705720      -32.2654324159       15.2207936648  W2        10204           0.0000000000
     30092     10031  TIP3      H1             -7.1030605720      -31.5019924159       15.7926436648  W2        10204           0.0000000000
     30093     10031  TIP3      H2             -7.7842005720      -31.9861924159       14.5303036648  W2        10204           0.0000000000
     30094     10032  TIP3      OH2           -15.4349505720      -29.8090724159        8.0355936648  W2        10205           0.0000000000
     30095     10032  TIP3      H1            -15.7654305720      -30.1797324159        7.2172936648  W2        10205           0.0000000000
     30096     10032  TIP3      H2            -14.8465405720      -30.4796724159        8.3824236648  W2        10205           0.0000000000
     30097     10033  TIP3      OH2           -14.0682005720      -26.3810124159       10.7168136648  W2        10206           0.0000000000
     30098     10033  TIP3      H1            -14.1630705720      -26.9597024159        9.9602736648  W2        10206           0.0000000000
     30099     10033  TIP3      H2            -13.3388405720      -26.7524424159       11.2130936648  W2        10206           0.0000000000
     30100     10034  TIP3      OH2           -15.0684005720      -31.0405124159       11.6690936648  W2        10207           0.0000000000
     30101     10034  TIP3      H1            -14.5031505720      -30.9190924159       10.9062136648  W2        10207           0.0000000000
     30102     10034  TIP3      H2            -14.7495105720      -30.4030124159       12.3079436648  W2        10207           0.0000000000
     30103     10035  TIP3      OH2            -8.7591805720      -25.5373224159       12.4031436648  W2        10208           0.0000000000
     30104     10035  TIP3      H1             -8.9995205720      -24.8750124159       13.0510636648  W2        10208           0.0000000000
     30105     10035  TIP3      H2             -8.9573605720      -26.3718024159       12.8281036648  W2        10208           0.0000000000
     30106     10036  TIP3      OH2           -14.1883305720      -26.6412424159       16.3862836648  W2        10209           0.0000000000
     30107     10036  TIP3      H1            -14.4995805720      -25.8589224159       16.8416036648  W2        10209           0.0000000000
     30108     10036  TIP3      H2            -14.8383105720      -26.7943324159       15.7004836648  W2        10209           0.0000000000
     30109     10037  TIP3      OH2            -8.2093705720      -31.2774024159        3.8382136648  W2        10210           0.0000000000
     30110     10037  TIP3      H1             -7.6298205720      -31.1273724159        4.5851036648  W2        10210           0.0000000000
     30111     10037  TIP3      H2             -7.7953705720      -30.8066624159        3.1148536648  W2        10210           0.0000000000
     30112     10038  TIP3      OH2           -17.2683405720      -30.4431324159       15.6148536648  W2        10211           0.0000000000
     30113     10038  TIP3      H1            -17.1980205720      -29.7924524159       16.3133536648  W2        10211           0.0000000000
     30114     10038  TIP3      H2            -18.1591205720      -30.3403824159       15.2799436648  W2        10211           0.0000000000
     30115     10039  TIP3      OH2           -10.4828805720      -24.5405524159        7.2735236648  W2        10212           0.0000000000
     30116     10039  TIP3      H1            -10.0091205720      -24.2449224159        8.0509436648  W2        10212           0.0000000000
     30117     10039  TIP3      H2            -11.0459505720      -23.8023924159        7.0404836648  W2        10212           0.0000000000
     30118     10040  TIP3      OH2           -15.9487405720      -24.5697424159       17.1496636648  W2        10213           0.0000000000
     30119     10040  TIP3      H1            -15.9412105720      -24.7057724159       16.2022136648  W2        10213           0.0000000000
     30120     10040  TIP3      H2            -16.8647005720      -24.6869324159       17.4016636648  W2        10213           0.0000000000
     30121     10041  TIP3      OH2            -4.5105305720      -39.5273624159        3.6511836648  W2        10214           0.0000000000
     30122     10041  TIP3      H1             -5.4104605720      -39.3884624159        3.9462436648  W2        10214           0.0000000000
     30123     10041  TIP3      H2             -4.2586905720      -38.6959024159        3.2493536648  W2        10214           0.0000000000
     30124     10042  TIP3      OH2           -16.4446805720      -30.7396424159        5.6248736648  W2        10215           0.0000000000
     30125     10042  TIP3      H1            -16.7365505720      -29.9714724159        5.1340036648  W2        10215           0.0000000000
     30126     10042  TIP3      H2            -17.1191605720      -31.3990224159        5.4620136648  W2        10215           0.0000000000
     30127     10043  TIP3      OH2            -3.3213905720      -25.1611224159        2.0275736648  W2        10216           0.0000000000
     30128     10043  TIP3      H1             -3.2480405720      -24.2221024159        2.1981036648  W2        10216           0.0000000000
     30129     10043  TIP3      H2             -2.4158805720      -25.4662624159        1.9713036648  W2        10216           0.0000000000
     30130     10044  TIP3      OH2           -20.3516705720      -28.3767224159       14.4398536648  W2        10217           0.0000000000
     30131     10044  TIP3      H1            -20.8528305720      -28.4047824159       13.6248236648  W2        10217           0.0000000000
     30132     10044  TIP3      H2            -20.3463005720      -29.2824024159       14.7495836648  W2        10217           0.0000000000
     30133     10045  TIP3      OH2           -20.6014005720      -25.5963424159       11.3238736648  W2        10218           0.0000000000
     30134     10045  TIP3      H1            -19.6553405720      -25.7406424159       11.3048236648  W2        10218           0.0000000000
     30135     10045  TIP3      H2            -20.7137705720      -24.8120624159       11.8609936648  W2        10218           0.0000000000
     30136     10046  TIP3      OH2            -2.4035505720      -24.9303724159       17.0062436648  W2        10219           0.0000000000
     30137     10046  TIP3      H1             -2.4528705720      -25.8855624159       16.9690036648  W2        10219           0.0000000000
     30138     10046  TIP3      H2             -3.2303205720      -24.6628424159       17.4076236648  W2        10219           0.0000000000
     30139     10047  TIP3      OH2           -11.4251505720      -25.3564524159       15.8823836648  W2        10220           0.0000000000
     30140     10047  TIP3      H1            -11.3376905720      -24.5299924159       16.3572936648  W2        10220           0.0000000000
     30141     10047  TIP3      H2            -12.2886405720      -25.6860724159       16.1313136648  W2        10220           0.0000000000
     30142     10048  TIP3      OH2           -11.0105705720      -21.5840824159        5.6884436648  W2        10221           0.0000000000
     30143     10048  TIP3      H1            -11.0859705720      -21.7053624159        4.7419636648  W2        10221           0.0000000000
     30144     10048  TIP3      H2            -10.9777005720      -20.6348124159        5.8069036648  W2        10221           0.0000000000
     30145     10049  TIP3      OH2           -17.3571905720      -22.7953824159        7.4693436648  W2        10222           0.0000000000
     30146     10049  TIP3      H1            -17.2051505720      -23.1433424159        8.3479936648  W2        10222           0.0000000000
     30147     10049  TIP3      H2            -18.2081505720      -23.1516524159        7.2140636648  W2        10222           0.0000000000
     30148     10050  TIP3      OH2            -7.9089705720      -22.4300624159        2.6906836648  W2        10223           0.0000000000
     30149     10050  TIP3      H1             -7.5341305720      -23.1744524159        2.2199436648  W2        10223           0.0000000000
     30150     10050  TIP3      H2             -7.9046005720      -22.7000024159        3.6090136648  W2        10223           0.0000000000
     30151     10051  TIP3      OH2            -8.2401605720      -22.5043524159        5.4399036648  W2        10224           0.0000000000
     30152     10051  TIP3      H1             -9.1751805720      -22.4041624159        5.6186036648  W2        10224           0.0000000000
     30153     10051  TIP3      H2             -7.9599705720      -23.2137524159        6.0182236648  W2        10224           0.0000000000
     30154     10052  TIP3      OH2            -5.2515705720      -33.4371224159       17.4864636648  W2        10225           0.0000000000
     30155     10052  TIP3      H1             -5.6588905720      -32.9565624159       16.7657936648  W2        10225           0.0000000000
     30156     10052  TIP3      H2             -5.2110005720      -34.3425224159       17.1785436648  W2        10225           0.0000000000
     30157     10053  TIP3      OH2           -18.1026205720      -27.0531824159       15.4831336648  W2        10226           0.0000000000
     30158     10053  TIP3      H1            -17.8864905720      -27.4146224159       16.3427136648  W2        10226           0.0000000000
     30159     10053  TIP3      H2            -18.9581505720      -27.4278024159       15.2734836648  W2        10226           0.0000000000
     30160     10054  TIP3      OH2           -15.4838205720      -38.5831324159       11.4785536648  W2        10227           0.0000000000
     30161     10054  TIP3      H1            -16.3454505720      -38.6703124159       11.0708436648  W2        10227           0.0000000000
     30162     10054  TIP3      H2            -15.5062505720      -37.7271224159       11.9063136648  W2        10227           0.0000000000
     30163     10055  TIP3      OH2           -10.8210405720      -38.8610924159       14.8532536648  W2        10228           0.0000000000
     30164     10055  TIP3      H1            -10.4007305720      -39.2763824159       15.6063136648  W2        10228           0.0000000000
     30165     10055  TIP3      H2            -11.7540805720      -39.0397624159       14.9704536648  W2        10228           0.0000000000
     30166     10056  TIP3      OH2            -7.4945505720      -35.1055724159       15.7067036648  W2        10229           0.0000000000
     30167     10056  TIP3      H1             -8.0086005720      -35.2313524159       16.5043036648  W2        10229           0.0000000000
     30168     10056  TIP3      H2             -7.6500805720      -34.1932624159       15.4623236648  W2        10229           0.0000000000
     30169     10057  TIP3      OH2            -6.7320605720      -30.2445724159        1.4680036648  W2        10230           0.0000000000
     30170     10057  TIP3      H1             -6.6899805720      -30.4671824159        0.5380036648  W2        10230           0.0000000000
     30171     10057  TIP3      H2             -5.8828505720      -29.8458624159        1.6579936648  W2        10230           0.0000000000
     30172     10058  TIP3      OH2           -11.1593105720      -36.3687524159        2.1383336648  W2        10231           0.0000000000
     30173     10058  TIP3      H1            -11.4128305720      -36.3495924159        3.0611436648  W2        10231           0.0000000000
     30174     10058  TIP3      H2            -11.4161005720      -37.2402124159        1.8369536648  W2        10231           0.0000000000
     30175     10059  TIP3      OH2           -15.3928105720      -33.6176824159       12.5735736648  W2        10232           0.0000000000
     30176     10059  TIP3      H1            -16.0346005720      -33.6579524159       13.2825836648  W2        10232           0.0000000000
     30177     10059  TIP3      H2            -15.3556105720      -32.6912124159       12.3358736648  W2        10232           0.0000000000
     30178     10060  TIP3      OH2           -15.3959005720      -33.3966724159        7.4855736648  W2        10233           0.0000000000
     30179     10060  TIP3      H1            -16.2886105720      -33.7370624159        7.4269536648  W2        10233           0.0000000000
     30180     10060  TIP3      H2            -14.9452405720      -33.7735824159        6.7298936648  W2        10233           0.0000000000
     30181     10061  TIP3      OH2            -9.8603505720      -32.9806424159        6.3026536648  W2        10234           0.0000000000
     30182     10061  TIP3      H1            -10.2693205720      -32.1657824159        6.0111336648  W2        10234           0.0000000000
     30183     10061  TIP3      H2             -9.1397305720      -33.1206324159        5.6883636648  W2        10234           0.0000000000
     30184     10062  TIP3      OH2           -10.7581905720      -32.8050024159       17.7907236648  W2        10235           0.0000000000
     30185     10062  TIP3      H1            -11.3208105720      -33.5098424159       18.1115036648  W2        10235           0.0000000000
     30186     10062  TIP3      H2             -9.9318505720      -32.9258124159       18.2584836648  W2        10235           0.0000000000
     30187     10063  TIP3      OH2            -8.8555805720      -33.5346024159        9.1166236648  W2        10236           0.0000000000
     30188     10063  TIP3      H1             -9.0511305720      -32.9289224159        8.4016836648  W2        10236           0.0000000000
     30189     10063  TIP3      H2             -8.6743205720      -34.3680824159        8.6822536648  W2        10236           0.0000000000
     30190     10064  TIP3      OH2           -17.6427605720      -33.2973324159       14.4407736648  W2        10237           0.0000000000
     30191     10064  TIP3      H1            -17.6808205720      -32.8971724159       15.3094836648  W2        10237           0.0000000000
     30192     10064  TIP3      H2            -18.1336505720      -34.1140924159       14.5310636648  W2        10237           0.0000000000
     30193     10065  TIP3      OH2           -14.2770205720      -35.9231024159        1.2393736648  W2        10238           0.0000000000
     30194     10065  TIP3      H1            -14.7079505720      -36.3680924159        1.9691136648  W2        10238           0.0000000000
     30195     10065  TIP3      H2            -14.9951505720      -35.5514724159        0.7271236648  W2        10238           0.0000000000
     30196     10066  TIP3      OH2           -21.0346805720      -36.1811524159        8.2912436648  W2        10239           0.0000000000
     30197     10066  TIP3      H1            -20.4039105720      -36.2099424159        9.0106336648  W2        10239           0.0000000000
     30198     10066  TIP3      H2            -20.5852505720      -36.6062824159        7.5608336648  W2        10239           0.0000000000
     30199     10067  TIP3      OH2           -19.7604705720      -35.4349524159        3.7152836648  W2        10240           0.0000000000
     30200     10067  TIP3      H1            -19.2863005720      -34.8439624159        3.1303736648  W2        10240           0.0000000000
     30201     10067  TIP3      H2            -20.4778305720      -34.9046624159        4.0622936648  W2        10240           0.0000000000
     30202     10068  TIP3      OH2            -9.5916605720      -31.8964724159       13.7878636648  W2        10241           0.0000000000
     30203     10068  TIP3      H1             -9.2681805720      -32.5275024159       13.1449136648  W2        10241           0.0000000000
     30204     10068  TIP3      H2            -10.0317305720      -32.4312524159       14.4486036648  W2        10241           0.0000000000
     30205     10069  TIP3      OH2           -12.8143705720      -35.9689224159        8.5719836648  W2        10242           0.0000000000
     30206     10069  TIP3      H1            -13.7252605720      -35.9122424159        8.8605836648  W2        10242           0.0000000000
     30207     10069  TIP3      H2            -12.3090805720      -36.0293724159        9.3827036648  W2        10242           0.0000000000
     30208     10070  TIP3      OH2           -17.9860305720      -34.3402924159        7.3987436648  W2        10243           0.0000000000
     30209     10070  TIP3      H1            -18.8752305720      -34.2407424159        7.0587036648  W2        10243           0.0000000000
     30210     10070  TIP3      H2            -17.6895405720      -35.1819924159        7.0525336648  W2        10243           0.0000000000
     30211     10071  TIP3      OH2           -14.3328505720      -34.3400324159        5.0552036648  W2        10244           0.0000000000
     30212     10071  TIP3      H1            -13.4013005720      -34.2110324159        5.2335136648  W2        10244           0.0000000000
     30213     10071  TIP3      H2            -14.5478205720      -33.6706024159        4.4056736648  W2        10244           0.0000000000
     30214     10072  TIP3      OH2            -8.4091805720      -36.7342924159       11.8361636648  W2        10245           0.0000000000
     30215     10072  TIP3      H1             -9.0860205720      -36.6029824159       12.5001336648  W2        10245           0.0000000000
     30216     10072  TIP3      H2             -8.8946905720      -36.8893424159       11.0259336648  W2        10245           0.0000000000
     30217     10073  TIP3      OH2           -15.6588305720      -33.1458124159        2.6218136648  W2        10246           0.0000000000
     30218     10073  TIP3      H1            -16.2013205720      -33.5254324159        1.9305736648  W2        10246           0.0000000000
     30219     10073  TIP3      H2            -14.8253405720      -32.9513424159        2.1932236648  W2        10246           0.0000000000
     30220     10074  TIP3      OH2           -17.5236905720      -28.5886224159       17.7209736648  W2        10248           0.0000000000
     30221     10074  TIP3      H1            -16.7914505720      -28.3340324159       18.2824236648  W2        10248           0.0000000000
     30222     10074  TIP3      H2            -18.3038205720      -28.3840824159       18.2365136648  W2        10248           0.0000000000
     30223     10075  TIP3      OH2           -11.4944005720      -33.1816224159       10.4589436648  W2        10249           0.0000000000
     30224     10075  TIP3      H1            -10.9300605720      -33.7279624159        9.9119036648  W2        10249           0.0000000000
     30225     10075  TIP3      H2            -11.6420605720      -33.7034324159       11.2477036648  W2        10249           0.0000000000
     30226     10076  TIP3      OH2           -16.4924305720      -37.0450124159        6.8774236648  W2        10250           0.0000000000
     30227     10076  TIP3      H1            -16.8094805720      -37.9474824159        6.8419636648  W2        10250           0.0000000000
     30228     10076  TIP3      H2            -15.7110205720      -37.0432724159        6.3245836648  W2        10250           0.0000000000
     30229     10077  TIP3      OH2           -12.8678105720      -34.7930124159       12.8729836648  W2        10251           0.0000000000
     30230     10077  TIP3      H1            -13.7032805720      -34.3390624159       12.9832236648  W2        10251           0.0000000000
     30231     10077  TIP3      H2            -12.3437505720      -34.5171624159       13.6249736648  W2        10251           0.0000000000
     30232     10078  TIP3      OH2           -12.3235505720      -28.5802424159        4.5576236648  W2        10252           0.0000000000
     30233     10078  TIP3      H1            -13.0684505720      -29.0877124159        4.2354136648  W2        10252           0.0000000000
     30234     10078  TIP3      H2            -12.4578305720      -28.5314424159        5.5041036648  W2        10252           0.0000000000
     30235     10079  TIP3      OH2            -5.1736605720      -29.4474224159       13.3443836648  W2        10253           0.0000000000
     30236     10079  TIP3      H1             -4.5317805720      -28.9907924159       12.8006036648  W2        10253           0.0000000000
     30237     10079  TIP3      H2             -6.0039705720      -29.3341824159       12.8817936648  W2        10253           0.0000000000
     30238     10080  TIP3      OH2            -8.4258705720      -35.7662524159        2.7568836648  W2        10254           0.0000000000
     30239     10080  TIP3      H1             -9.3644505720      -35.6546924159        2.6057636648  W2        10254           0.0000000000
     30240     10080  TIP3      H2             -8.1286605720      -34.9095624159        3.0634536648  W2        10254           0.0000000000
     30241     10081  TIP3      OH2           -10.8043405720      -28.3959124159       15.7945336648  W2        10255           0.0000000000
     30242     10081  TIP3      H1            -11.1497305720      -28.7776724159       16.6014936648  W2        10255           0.0000000000
     30243     10081  TIP3      H2            -11.0043305720      -27.4625524159       15.8658236648  W2        10255           0.0000000000
     30244     10082  TIP3      OH2            -7.7075205720      -33.8989824159        4.4176236648  W2        10256           0.0000000000
     30245     10082  TIP3      H1             -6.8156205720      -34.0364824159        4.7367436648  W2        10256           0.0000000000
     30246     10082  TIP3      H2             -7.6511605720      -33.1083724159        3.8809736648  W2        10256           0.0000000000
     30247     10083  TIP3      OH2           -17.1987205720      -29.2852424159       10.3274136648  W2        10257           0.0000000000
     30248     10083  TIP3      H1            -16.4540005720      -29.2876724159        9.7260636648  W2        10257           0.0000000000
     30249     10083  TIP3      H2            -17.1210605720      -30.1088624159       10.8089236648  W2        10257           0.0000000000
     30250     10084  TIP3      OH2           -10.1981405720      -27.1218124159        3.5830836648  W2        10258           0.0000000000
     30251     10084  TIP3      H1            -10.4933005720      -26.2950224159        3.9645636648  W2        10258           0.0000000000
     30252     10084  TIP3      H2            -10.9011405720      -27.7411224159        3.7792236648  W2        10258           0.0000000000
     30253     10085  TIP3      OH2           -20.1907505720      -30.8245524159       15.6422636648  W2        10259           0.0000000000
     30254     10085  TIP3      H1            -19.9678905720      -31.2425924159       16.4740136648  W2        10259           0.0000000000
     30255     10085  TIP3      H2            -20.7927405720      -31.4370524159       15.2195436648  W2        10259           0.0000000000
     30256     10086  TIP3      OH2            -8.5539805720      -25.9343624159       15.7450336648  W2        10261           0.0000000000
     30257     10086  TIP3      H1             -9.4545505720      -25.7511024159       15.4774236648  W2        10261           0.0000000000
     30258     10086  TIP3      H2             -8.5198705720      -25.6754324159       16.6659136648  W2        10261           0.0000000000
     30259     10087  TIP3      OH2            -2.8226505720      -33.6895724159        4.1122936648  W2        10262           0.0000000000
     30260     10087  TIP3      H1             -3.3770205720      -34.0857724159        3.4400436648  W2        10262           0.0000000000
     30261     10087  TIP3      H2             -2.7222905720      -32.7790524159        3.8346236648  W2        10262           0.0000000000
     30262     10088  TIP3      OH2            -2.8594505720      -27.8894024159       16.9494436648  W2        10263           0.0000000000
     30263     10088  TIP3      H1             -3.7106005720      -27.6510224159       16.5820836648  W2        10263           0.0000000000
     30264     10088  TIP3      H2             -2.2691105720      -27.9060824159       16.1961536648  W2        10263           0.0000000000
     30265     10089  TIP3      OH2            -4.5274805720      -24.9035324159        4.5775036648  W2        10264           0.0000000000
     30266     10089  TIP3      H1             -4.9003705720      -25.7291524159        4.8865636648  W2        10264           0.0000000000
     30267     10089  TIP3      H2             -4.2501305720      -25.0865924159        3.6798436648  W2        10264           0.0000000000
     30268     10090  TIP3      OH2            -7.3670905720      -30.0955824159       11.5986936648  W2        10265           0.0000000000
     30269     10090  TIP3      H1             -8.2954005720      -30.3273924159       11.5716236648  W2        10265           0.0000000000
     30270     10090  TIP3      H2             -6.9159805720      -30.8726024159       11.2685736648  W2        10265           0.0000000000
     30271     10091  TIP3      OH2           -14.8237805720      -25.7674224159        7.7315636648  W2        10266           0.0000000000
     30272     10091  TIP3      H1            -14.2965605720      -24.9939824159        7.5314436648  W2        10266           0.0000000000
     30273     10091  TIP3      H2            -15.7039305720      -25.5425024159        7.4299636648  W2        10266           0.0000000000
     30274     10092  TIP3      OH2           -19.0690105720      -30.9050124159        2.3188036648  W2        10267           0.0000000000
     30275     10092  TIP3      H1            -18.4530205720      -30.2782924159        2.6982836648  W2        10267           0.0000000000
     30276     10092  TIP3      H2            -19.9307505720      -30.5890324159        2.5904536648  W2        10267           0.0000000000
     30277     10093  TIP3      OH2           -13.3965505720      -28.1044324159        7.3079936648  W2        10268           0.0000000000
     30278     10093  TIP3      H1            -13.6375505720      -27.1789924159        7.3495236648  W2        10268           0.0000000000
     30279     10093  TIP3      H2            -14.1371905720      -28.5633024159        7.7043836648  W2        10268           0.0000000000
     30280     10094  TIP3      OH2           -12.8818905720      -23.9550724159       13.6231036648  W2        10269           0.0000000000
     30281     10094  TIP3      H1            -12.5194205720      -23.1005124159       13.3895436648  W2        10269           0.0000000000
     30282     10094  TIP3      H2            -12.3503705720      -24.2469124159       14.3637336648  W2        10269           0.0000000000
     30283     10095  TIP3      OH2           -14.7134705720      -23.0826724159        6.8532136648  W2        10270           0.0000000000
     30284     10095  TIP3      H1            -15.6634205720      -22.9769324159        6.9045436648  W2        10270           0.0000000000
     30285     10095  TIP3      H2            -14.3616605720      -22.2619324159        7.1979636648  W2        10270           0.0000000000
     30286     10096  TIP3      OH2            -9.3378105720      -27.8560024159       13.3236636648  W2        10271           0.0000000000
     30287     10096  TIP3      H1             -9.7636805720      -28.0838324159       14.1500636648  W2        10271           0.0000000000
     30288     10096  TIP3      H2             -8.7572305720      -28.5948224159       13.1411936648  W2        10271           0.0000000000
     30289     10097  TIP3      OH2            -7.1349205720      -26.9269524159        2.3975636648  W2        10272           0.0000000000
     30290     10097  TIP3      H1             -6.7816105720      -27.3069724159        3.2019136648  W2        10272           0.0000000000
     30291     10097  TIP3      H2             -8.0835705720      -27.0204724159        2.4844936648  W2        10272           0.0000000000
     30292     10098  TIP3      OH2            -6.6793905720      -23.3040524159       15.7931436648  W2        10273           0.0000000000
     30293     10098  TIP3      H1             -7.2810705720      -23.8597624159       15.2977736648  W2        10273           0.0000000000
     30294     10098  TIP3      H2             -6.3980205720      -22.6370724159       15.1668836648  W2        10273           0.0000000000
     30295     10099  TIP3      OH2            -2.6314805720      -22.4477024159        2.5985836648  W2        10274           0.0000000000
     30296     10099  TIP3      H1             -1.8876905720      -21.8616524159        2.4587436648  W2        10274           0.0000000000
     30297     10099  TIP3      H2             -3.3256705720      -21.8791224159        2.9318236648  W2        10274           0.0000000000
     30298     10100  TIP3      OH2           -18.5568005720      -36.0712824159       15.2004036648  W2        10275           0.0000000000
     30299     10100  TIP3      H1            -19.4495705720      -35.7327424159       15.1328036648  W2        10275           0.0000000000
     30300     10100  TIP3      H2            -18.6555205720      -36.9266724159       15.6184836648  W2        10275           0.0000000000
     30301     10101  TIP3      OH2            -6.2689905720      -28.2547524159        4.6243536648  W2        10276           0.0000000000
     30302     10101  TIP3      H1             -6.5462305720      -28.9828224159        5.1804636648  W2        10276           0.0000000000
     30303     10101  TIP3      H2             -5.3416905720      -28.1355524159        4.8296136648  W2        10276           0.0000000000
     30304     10102  TIP3      OH2           -18.9056005720      -24.2668424159       13.6353436648  W2        10277           0.0000000000
     30305     10102  TIP3      H1            -18.6885705720      -25.1986024159       13.6043136648  W2        10277           0.0000000000
     30306     10102  TIP3      H2            -18.6592505720      -23.9923424159       14.5186236648  W2        10277           0.0000000000
     30307     10103  TIP3      OH2           -13.0441405720      -25.8153424159        0.8445636648  W2        10278           0.0000000000
     30308     10103  TIP3      H1            -12.8051605720      -26.5635324159        0.2974536648  W2        10278           0.0000000000
     30309     10103  TIP3      H2            -13.3130105720      -26.2031724159        1.6773436648  W2        10278           0.0000000000
     30310     10104  TIP3      OH2           -14.1070805720      -26.2449624159        3.3008236648  W2        10279           0.0000000000
     30311     10104  TIP3      H1            -13.9602805720      -26.7649824159        4.0909136648  W2        10279           0.0000000000
     30312     10104  TIP3      H2            -14.1099105720      -25.3382024159        3.6074136648  W2        10279           0.0000000000
     30313     10105  TIP3      OH2           -17.6539705720      -28.9926324159        3.8113636648  W2        10280           0.0000000000
     30314     10105  TIP3      H1            -18.3400405720      -28.6403824159        4.3783336648  W2        10280           0.0000000000
     30315     10105  TIP3      H2            -17.1311805720      -28.2296724159        3.5647936648  W2        10280           0.0000000000
     30316     10106  TIP3      OH2            -9.8224605720      -36.3302524159       14.0902636648  W2        10281           0.0000000000
     30317     10106  TIP3      H1             -9.1236705720      -36.2563824159       14.7402336648  W2        10281           0.0000000000
     30318     10106  TIP3      H2            -10.2033205720      -37.1947524159       14.2445536648  W2        10281           0.0000000000
     30319     10107  TIP3      OH2            -9.0379705720      -36.6780824159        5.1874936648  W2        10282           0.0000000000
     30320     10107  TIP3      H1             -8.8181405720      -36.2065424159        4.3840336648  W2        10282           0.0000000000
     30321     10107  TIP3      H2             -8.4795705720      -36.2838224159        5.8575536648  W2        10282           0.0000000000
     30322     10108  TIP3      OH2           -11.3693605720      -24.5476024159        4.0502436648  W2        10283           0.0000000000
     30323     10108  TIP3      H1            -12.1857505720      -24.0506324159        4.1026736648  W2        10283           0.0000000000
     30324     10108  TIP3      H2            -10.8397305720      -24.0722524159        3.4101236648  W2        10283           0.0000000000
     30325     10109  TIP3      OH2           -11.8379805720      -34.9502024159        6.0223336648  W2        10284           0.0000000000
     30326     10109  TIP3      H1            -11.0257205720      -34.4458824159        6.0685036648  W2        10284           0.0000000000
     30327     10109  TIP3      H2            -12.0826805720      -35.0952324159        6.9362936648  W2        10284           0.0000000000
     30328     10110  TIP3      OH2           -11.3023405720      -33.9639324159       15.2069936648  W2        10285           0.0000000000
     30329     10110  TIP3      H1            -11.1833105720      -33.3903924159       15.9640336648  W2        10285           0.0000000000
     30330     10110  TIP3      H2            -10.6468805720      -34.6519924159       15.3217736648  W2        10285           0.0000000000
     30331     10111  TIP3      OH2           -10.9543105720      -37.8689024159        6.9604436648  W2        10286           0.0000000000
     30332     10111  TIP3      H1            -11.3009605720      -37.2518424159        7.6048736648  W2        10286           0.0000000000
     30333     10111  TIP3      H2            -10.2956205720      -37.3683324159        6.4789936648  W2        10286           0.0000000000
     30334     10112  TIP3      OH2           -14.0310505720      -23.5038824159        4.0319336648  W2        10287           0.0000000000
     30335     10112  TIP3      H1            -13.8701805720      -22.7041324159        3.5311936648  W2        10287           0.0000000000
     30336     10112  TIP3      H2            -14.2282705720      -23.1972824159        4.9169936648  W2        10287           0.0000000000
     30337     10113  TIP3      OH2           -15.2966105720      -36.8059624159        3.6476936648  W2        10288           0.0000000000
     30338     10113  TIP3      H1            -15.3801305720      -35.9176524159        3.9943336648  W2        10288           0.0000000000
     30339     10113  TIP3      H2            -14.4065805720      -37.0712924159        3.8793736648  W2        10288           0.0000000000
     30340     10114  TIP3      OH2            -5.0977605720      -36.0569024159       16.0419636648  W2        10289           0.0000000000
     30341     10114  TIP3      H1             -6.0141805720      -35.7947324159       15.9543336648  W2        10289           0.0000000000
     30342     10114  TIP3      H2             -4.7622605720      -36.0600024159       15.1454936648  W2        10289           0.0000000000
     30343     10115  TIP3      OH2            -6.4956605720      -32.3068024159       10.1376936648  W2        10290           0.0000000000
     30344     10115  TIP3      H1             -7.2932205720      -32.7217824159        9.8091936648  W2        10290           0.0000000000
     30345     10115  TIP3      H2             -6.0505505720      -32.9974324159       10.6287436648  W2        10290           0.0000000000
     30346     10116  TIP3      OH2           -17.0380805720      -26.3787424159        2.7081436648  W2        10291           0.0000000000
     30347     10116  TIP3      H1            -16.4459305720      -25.6792624159        2.9843836648  W2        10291           0.0000000000
     30348     10116  TIP3      H2            -16.5787805720      -26.8117924159        1.9886036648  W2        10291           0.0000000000
     30349     10117  TIP3      OH2           -18.7221605720      -33.7144424159        1.8240836648  W2        10292           0.0000000000
     30350     10117  TIP3      H1            -18.7669005720      -32.7751324159        2.0027836648  W2        10292           0.0000000000
     30351     10117  TIP3      H2            -19.6098405720      -33.9499524159        1.5542936648  W2        10292           0.0000000000
     30352     10118  TIP3      OH2            -5.4092005720      -23.0505524159       11.7600436648  W2        10293           0.0000000000
     30353     10118  TIP3      H1             -5.5647705720      -22.3721124159       11.1029736648  W2        10293           0.0000000000
     30354     10118  TIP3      H2             -4.4765605720      -22.9786224159       11.9631036648  W2        10293           0.0000000000
     30355     10119  TIP3      OH2           -17.9139605720      -38.9327824159       10.4971836648  W2        10294           0.0000000000
     30356     10119  TIP3      H1            -18.1429805720      -38.8735324159        9.5696836648  W2        10294           0.0000000000
     30357     10119  TIP3      H2            -18.3566205720      -39.7242324159       10.8035936648  W2        10294           0.0000000000
     30358     10120  TIP3      OH2           -18.9836305720      -24.9920724159        6.6577636648  W2        10295           0.0000000000
     30359     10120  TIP3      H1            -19.8157705720      -24.5198024159        6.6849036648  W2        10295           0.0000000000
     30360     10120  TIP3      H2            -18.4378005720      -24.4823124159        6.0590736648  W2        10295           0.0000000000
     30361     10121  TIP3      OH2           -11.0059605720      -23.9522024159        0.9831636648  W2        10298           0.0000000000
     30362     10121  TIP3      H1            -11.6498605720      -24.5833424159        1.3045336648  W2        10298           0.0000000000
     30363     10121  TIP3      H2            -10.2441305720      -24.4834024159        0.7515136648  W2        10298           0.0000000000
     30364     10122  TIP3      OH2            -6.4016705720      -24.1352124159        1.2169636648  W2        10300           0.0000000000
     30365     10122  TIP3      H1             -6.1186305720      -24.9296924159        1.6696536648  W2        10300           0.0000000000
     30366     10122  TIP3      H2             -5.6618805720      -23.9021124159        0.6560736648  W2        10300           0.0000000000
     30367     10123  TIP3      OH2           -15.4469405720      -28.2257224159        1.0744536648  W2        10302           0.0000000000
     30368     10123  TIP3      H1            -15.3825305720      -29.0197624159        1.6050936648  W2        10302           0.0000000000
     30369     10123  TIP3      H2            -14.7940205720      -28.3444424159        0.3846536648  W2        10302           0.0000000000
     30370     10124  TIP3      OH2           -10.0946005720      -27.1785524159        0.8102536648  W2        10304           0.0000000000
     30371     10124  TIP3      H1            -10.3631905720      -26.9983424159        1.7111436648  W2        10304           0.0000000000
     30372     10124  TIP3      H2            -10.3010405720      -28.1039324159        0.6788336648  W2        10304           0.0000000000
     30373     10125  TIP3      OH2            -7.3981805720      -28.6837524159       15.7578636648  W2        10305           0.0000000000
     30374     10125  TIP3      H1             -6.6527005720      -28.0953824159       15.6382636648  W2        10305           0.0000000000
     30375     10125  TIP3      H2             -8.1555005720      -28.1017824159       15.8211736648  W2        10305           0.0000000000
     30376     10126  TIP3      OH2           -14.2975605720      -30.2531024159        3.3802536648  W2        10307           0.0000000000
     30377     10126  TIP3      H1            -14.7573605720      -30.7372724159        4.0661036648  W2        10307           0.0000000000
     30378     10126  TIP3      H2            -14.0426905720      -30.9215624159        2.7443036648  W2        10307           0.0000000000
     30379     10127  TIP3      OH2           -15.0086305720      -32.3603924159       15.7362136648  W2        10308           0.0000000000
     30380     10127  TIP3      H1            -15.6270205720      -31.6857324159       16.0166836648  W2        10308           0.0000000000
     30381     10127  TIP3      H2            -14.6645105720      -32.0390024159       14.9028336648  W2        10308           0.0000000000
     30382     10128  TIP3      OH2           -13.2265205720      -32.0099224159        1.6425736648  W2        10309           0.0000000000
     30383     10128  TIP3      H1            -13.4070205720      -32.1648024159        0.7154036648  W2        10309           0.0000000000
     30384     10128  TIP3      H2            -12.2764705720      -31.9020524159        1.6873636648  W2        10309           0.0000000000
     30385     10129  TIP3      OH2            -3.8366905720      -29.6555024159        1.0883836648  W2        10311           0.0000000000
     30386     10129  TIP3      H1             -4.1102105720      -30.0799524159        0.2752136648  W2        10311           0.0000000000
     30387     10129  TIP3      H2             -3.7972805720      -28.7240524159        0.8714236648  W2        10311           0.0000000000
     30388     10130  TIP3      OH2           -14.6692605720      -35.0053124159       16.8185236648  W2        10312           0.0000000000
     30389     10130  TIP3      H1            -14.5191705720      -35.7341824159       16.2164936648  W2        10312           0.0000000000
     30390     10130  TIP3      H2            -14.6670205720      -34.2281424159       16.2597436648  W2        10312           0.0000000000
     30391     10131  TIP3      OH2           -14.2566905720      -36.6357324159       14.3112636648  W2        10313           0.0000000000
     30392     10131  TIP3      H1            -13.7209405720      -36.1840624159       13.6591936648  W2        10313           0.0000000000
     30393     10131  TIP3      H2            -15.1087305720      -36.7437524159       13.8886736648  W2        10313           0.0000000000
     30394     10132  TIP3      OH2           -12.6748505720      -31.1961124159       14.5507836648  W2        10314           0.0000000000
     30395     10132  TIP3      H1            -11.9243705720      -31.3523624159       13.9775636648  W2        10314           0.0000000000
     30396     10132  TIP3      H2            -13.0140205720      -30.3444524159       14.2753336648  W2        10314           0.0000000000
     30397     10133  TIP3      OH2            -6.9425105720      -30.5924124159       17.6565836648  W2        10316           0.0000000000
     30398     10133  TIP3      H1             -7.2240105720      -29.8829524159       17.0789636648  W2        10316           0.0000000000
     30399     10133  TIP3      H2             -6.0000805720      -30.6651124159       17.5057036648  W2        10316           0.0000000000
     30400     10134  TIP3      OH2           -13.4511405720      -39.1791624159       14.7426236648  W2        10318           0.0000000000
     30401     10134  TIP3      H1            -13.5491805720      -38.2328424159       14.6372436648  W2        10318           0.0000000000
     30402     10134  TIP3      H2            -14.1935205720      -39.5517824159       14.2669736648  W2        10318           0.0000000000
     30403     10135  TIP3      OH2            -9.4714305720      -35.7302724159       17.3818136648  W2        10320           0.0000000000
     30404     10135  TIP3      H1            -10.4188905720      -35.6983024159       17.5141436648  W2        10320           0.0000000000
     30405     10135  TIP3      H2             -9.1587605720      -36.3555624159       18.0356336648  W2        10320           0.0000000000
     30406     10136  TIP3      OH2           -13.2293305720      -39.8854224159       17.4139036648  W2        10323           0.0000000000
     30407     10136  TIP3      H1            -12.5174905720      -40.5252024159       17.3998136648  W2        10323           0.0000000000
     30408     10136  TIP3      H2            -13.3302905720      -39.6185924159       16.5002136648  W2        10323           0.0000000000
     30409     10137  TIP3      OH2           -13.3293505720      -21.3195524159        2.6439336648  W2        10325           0.0000000000
     30410     10137  TIP3      H1            -12.3962805720      -21.1616824159        2.7877736648  W2        10325           0.0000000000
     30411     10137  TIP3      H2            -13.5934705720      -20.6442524159        2.0190836648  W2        10325           0.0000000000
     30412     10138  TIP3      OH2           -19.7608605720      -26.6831724159        2.1267436648  W2        10326           0.0000000000
     30413     10138  TIP3      H1            -18.8469405720      -26.6042824159        2.4001336648  W2        10326           0.0000000000
     30414     10138  TIP3      H2            -19.7535505720      -27.3702124159        1.4603036648  W2        10326           0.0000000000
     30415     10139  TIP3      OH2           -21.1118005720      -21.2903224159        7.2041336648  W2        10327           0.0000000000
     30416     10139  TIP3      H1            -21.7590905720      -21.7521524159        6.6712536648  W2        10327           0.0000000000
     30417     10139  TIP3      H2            -20.7573405720      -21.9619924159        7.7867536648  W2        10327           0.0000000000
     30418     10140  TIP3      OH2           -20.2418805720      -23.2096224159        9.0087536648  W2        10328           0.0000000000
     30419     10140  TIP3      H1            -20.5762005720      -24.0898924159        9.1807736648  W2        10328           0.0000000000
     30420     10140  TIP3      H2            -20.0196405720      -22.8641224159        9.8733136648  W2        10328           0.0000000000
     30421     10141  TIP3      OH2            -2.6934005720      -22.3999824159       11.9892336648  W2        10329           0.0000000000
     30422     10141  TIP3      H1             -2.7147305720      -22.2151424159       12.9281736648  W2        10329           0.0000000000
     30423     10141  TIP3      H2             -2.0027805720      -21.8315824159       11.6483736648  W2        10329           0.0000000000
     30424     10142  TIP3      OH2            -3.1301105720      -22.8328724159       14.9111436648  W2        10330           0.0000000000
     30425     10142  TIP3      H1             -3.6172405720      -23.5684624159       14.5398836648  W2        10330           0.0000000000
     30426     10142  TIP3      H2             -2.5808405720      -23.2264824159       15.5890836648  W2        10330           0.0000000000
     30427     10143  TIP3      OH2            -3.3784105720      -28.7866924159        5.0634236648  W2        10332           0.0000000000
     30428     10143  TIP3      H1             -2.5282705720      -28.3656024159        5.1905836648  W2        10332           0.0000000000
     30429     10143  TIP3      H2             -3.3729005720      -29.5266824159        5.6705636648  W2        10332           0.0000000000
     30430     10144  TIP3      OH2            -2.9838505720      -30.7329524159        6.8869936648  W2        10333           0.0000000000
     30431     10144  TIP3      H1             -3.7103905720      -31.2126924159        7.2847536648  W2        10333           0.0000000000
     30432     10144  TIP3      H2             -2.4025205720      -30.5274824159        7.6191536648  W2        10333           0.0000000000
     30433     10145  TIP3      OH2            -3.2247305720      -27.9482024159       11.8347536648  W2        10334           0.0000000000
     30434     10145  TIP3      H1             -2.3913105720      -28.3262024159       11.5541136648  W2        10334           0.0000000000
     30435     10145  TIP3      H2             -3.1127005720      -27.0050824159       11.7156636648  W2        10334           0.0000000000
     30436     10146  TIP3      OH2            -4.7385005720      -25.0704524159       14.1415936648  W2        10335           0.0000000000
     30437     10146  TIP3      H1             -5.3859705720      -24.7453024159       14.7671136648  W2        10335           0.0000000000
     30438     10146  TIP3      H2             -5.2561005720      -25.5106824159       13.4674236648  W2        10335           0.0000000000
     30439     10147  TIP3      OH2            -2.7155405720      -30.8321024159        3.2781236648  W2        10336           0.0000000000
     30440     10147  TIP3      H1             -3.2374305720      -30.4756924159        2.5592136648  W2        10336           0.0000000000
     30441     10147  TIP3      H2             -2.7486205720      -30.1573224159        3.9562136648  W2        10336           0.0000000000
     30442     10148  TIP3      OH2            -4.3666405720      -33.5925424159        1.8288336648  W2        10337           0.0000000000
     30443     10148  TIP3      H1             -4.2702005720      -32.9258424159        1.1488036648  W2        10337           0.0000000000
     30444     10148  TIP3      H2             -4.5066805720      -34.4079124159        1.3473836648  W2        10337           0.0000000000
     30445     10149  TIP3      OH2            -5.1971705720      -32.2123024159        7.4498636648  W2        10338           0.0000000000
     30446     10149  TIP3      H1             -5.3472905720      -33.1574424159        7.4296436648  W2        10338           0.0000000000
     30447     10149  TIP3      H2             -5.5507205720      -31.9311624159        8.2937736648  W2        10338           0.0000000000
     30448     10150  TIP3      OH2           -20.1619305720      -30.1340824159       11.4602436648  W2        10339           0.0000000000
     30449     10150  TIP3      H1            -19.9776405720      -30.2159124159       10.5245336648  W2        10339           0.0000000000
     30450     10150  TIP3      H2            -19.3126405720      -30.2583824159       11.8838836648  W2        10339           0.0000000000
     30451     10151  TIP3      OH2            -4.3408805720      -30.2419724159       17.0886936648  W2        10340           0.0000000000
     30452     10151  TIP3      H1             -3.7581505720      -30.9767424159       17.2804136648  W2        10340           0.0000000000
     30453     10151  TIP3      H2             -3.7769505720      -29.4699424159       17.1352736648  W2        10340           0.0000000000
     30454     10152  TIP3      OH2            -2.8441705720      -32.3393924159       17.7732336648  W2        10341           0.0000000000
     30455     10152  TIP3      H1             -3.7075005720      -32.7181824159       17.6077036648  W2        10341           0.0000000000
     30456     10152  TIP3      H2             -2.2398005720      -33.0779124159       17.6988136648  W2        10341           0.0000000000
     30457     10153  TIP3      OH2            -5.1192605720      -36.1845624159        0.9463836648  W2        10342           0.0000000000
     30458     10153  TIP3      H1             -4.5086805720      -36.5558824159        1.5832036648  W2        10342           0.0000000000
     30459     10153  TIP3      H2             -5.9561105720      -36.6058724159        1.1423836648  W2        10342           0.0000000000
     30460     10154  TIP3      OH2            -5.4866905720      -34.6297224159        5.9123736648  W2        10343           0.0000000000
     30461     10154  TIP3      H1             -5.2069805720      -35.5366824159        6.0365436648  W2        10343           0.0000000000
     30462     10154  TIP3      H2             -4.7275205720      -34.1955724159        5.5232936648  W2        10343           0.0000000000
     30463     10155  TIP3      OH2            -4.8748605720      -34.0479824159       11.3482636648  W2        10344           0.0000000000
     30464     10155  TIP3      H1             -3.9420605720      -33.8359924159       11.3138636648  W2        10344           0.0000000000
     30465     10155  TIP3      H2             -5.1101105720      -33.9467724159       12.2705636648  W2        10344           0.0000000000
     30466     10156  TIP3      OH2            -4.8456705720      -33.3114524159       14.1242036648  W2        10345           0.0000000000
     30467     10156  TIP3      H1             -5.6885405720      -33.0434124159       14.4901836648  W2        10345           0.0000000000
     30468     10156  TIP3      H2             -4.4032405720      -32.4892624159       13.9133136648  W2        10345           0.0000000000
     30469     10157  TIP3      OH2           -20.5644505720      -34.8635824159       17.6011236648  W2        10346           0.0000000000
     30470     10157  TIP3      H1            -19.6449605720      -34.9857524159       17.8374336648  W2        10346           0.0000000000
     30471     10157  TIP3      H2            -21.0140005720      -35.6136124159       17.9904736648  W2        10346           0.0000000000
     30472     10158  TIP3      OH2            -4.8732105720      -37.3667924159        5.9605736648  W2        10348           0.0000000000
     30473     10158  TIP3      H1             -4.6907105720      -37.8156424159        6.7860736648  W2        10348           0.0000000000
     30474     10158  TIP3      H2             -5.4729205720      -37.9513524159        5.4970336648  W2        10348           0.0000000000
     30475     10159  TIP3      OH2           -19.3432005720      -36.5514224159       10.4924136648  W2        10349           0.0000000000
     30476     10159  TIP3      H1            -18.8980405720      -37.3431724159       10.7943836648  W2        10349           0.0000000000
     30477     10159  TIP3      H2            -18.8769005720      -35.8349024159       10.9229736648  W2        10349           0.0000000000
     30478     10160  TIP3      OH2           -21.0391705720      -33.5521224159       11.5614336648  W2        10350           0.0000000000
     30479     10160  TIP3      H1            -20.5471905720      -33.7730724159       10.7706336648  W2        10350           0.0000000000
     30480     10160  TIP3      H2            -20.6770805720      -32.7117824159       11.8423836648  W2        10350           0.0000000000
     30481     10161  TIP3      OH2            -3.0065905720      -37.2989824159        2.4886036648  W2        10352           0.0000000000
     30482     10161  TIP3      H1             -2.5943305720      -38.0204124159        2.0134036648  W2        10352           0.0000000000
     30483     10161  TIP3      H2             -2.3249405720      -36.6295224159        2.5470336648  W2        10352           0.0000000000
     30484     10162  TIP3      OH2           -20.7255205720      -37.2942124159        5.6156736648  W2        10353           0.0000000000
     30485     10162  TIP3      H1            -21.6506805720      -37.0855524159        5.4862236648  W2        10353           0.0000000000
     30486     10162  TIP3      H2            -20.2715305720      -36.8101324159        4.9259036648  W2        10353           0.0000000000
     30487     10163  TIP3      OH2            -5.9548005720      -22.3100424159        7.5614136648  W2        10354           0.0000000000
     30488     10163  TIP3      H1             -5.3025105720      -22.6578324159        6.9533236648  W2        10354           0.0000000000
     30489     10163  TIP3      H2             -5.4444205720      -21.8217224159        8.2073836648  W2        10354           0.0000000000
     30490     10164  TIP3      OH2           -20.7619805720      -38.5563124159       13.9599236648  W2        10355           0.0000000000
     30491     10164  TIP3      H1            -21.4269305720      -38.8022824159       14.6030136648  W2        10355           0.0000000000
     30492     10164  TIP3      H2            -21.2048505720      -37.9342724159       13.3827236648  W2        10355           0.0000000000
     30493     10165  TIP3      OH2           -15.6157605720      -24.4067824159       14.3629036648  W2        10357           0.0000000000
     30494     10165  TIP3      H1            -16.0406505720      -23.5969324159       14.0803636648  W2        10357           0.0000000000
     30495     10165  TIP3      H2            -14.7114805720      -24.3213724159       14.0608836648  W2        10357           0.0000000000
     30496     10166  TIP3      OH2           -11.3046205720      -23.0077824159       17.3222736648  W2        10358           0.0000000000
     30497     10166  TIP3      H1            -11.1198705720      -23.3411724159       18.2003036648  W2        10358           0.0000000000
     30498     10166  TIP3      H2            -10.4581705720      -22.6979224159       17.0001936648  W2        10358           0.0000000000
     30499     10167  TIP3      OH2            -8.9595805720      -21.7218924159       16.5664136648  W2        10359           0.0000000000
     30500     10167  TIP3      H1             -8.2826905720      -22.3546624159       16.3263336648  W2        10359           0.0000000000
     30501     10167  TIP3      H2             -8.6377005720      -21.3208424159       17.3737436648  W2        10359           0.0000000000
     30502     10168  TIP3      OH2            -4.0422005720      -39.1323424159       15.6459136648  W2        10360           0.0000000000
     30503     10168  TIP3      H1             -4.8548505720      -38.8073124159       15.2583836648  W2        10360           0.0000000000
     30504     10168  TIP3      H2             -3.8093505720      -39.8924924159       15.1128236648  W2        10360           0.0000000000
     30505     10169  TIP3      OH2           -18.2140905720      -21.1503924159       14.4104336648  W2        10361           0.0000000000
     30506     10169  TIP3      H1            -18.9344505720      -20.7102924159       13.9592036648  W2        10361           0.0000000000
     30507     10169  TIP3      H2            -18.5796905720      -21.4009224159       15.2588336648  W2        10361           0.0000000000
     30508     10170  TIP3      OH2           -15.7468305720      -21.5500024159       13.4401536648  W2        10362           0.0000000000
     30509     10170  TIP3      H1            -16.6116105720      -21.4781524159       13.8441636648  W2        10362           0.0000000000
     30510     10170  TIP3      H2            -15.8019305720      -21.0032724159       12.6564036648  W2        10362           0.0000000000
     30511     10171  TIP3      OH2           -11.0362705720      -21.6621124159       12.6157536648  W2        10363           0.0000000000
     30512     10171  TIP3      H1            -11.4928705720      -21.1331424159       11.9615936648  W2        10363           0.0000000000
     30513     10171  TIP3      H2            -10.8734705720      -21.0589724159       13.3409836648  W2        10363           0.0000000000
     30514     10172  TIP3      OH2            -8.7086405720      -22.7841524159       13.5607836648  W2        10364           0.0000000000
     30515     10172  TIP3      H1             -9.6132705720      -22.6191324159       13.2949936648  W2        10364           0.0000000000
     30516     10172  TIP3      H2             -8.2797805720      -21.9309324159       13.4951236648  W2        10364           0.0000000000
     30517     10173  TIP3      OH2            -6.1044505720      -21.2142424159       13.8555636648  W2        10365           0.0000000000
     30518     10173  TIP3      H1             -6.2862505720      -20.2983524159       13.6450536648  W2        10365           0.0000000000
     30519     10173  TIP3      H2             -5.9276705720      -21.6245324159       13.0090236648  W2        10365           0.0000000000
     30520     10174  TIP3      OH2           -18.7992805720      -22.5271424159       11.3206136648  W2        10366           0.0000000000
     30521     10174  TIP3      H1            -18.8176805720      -22.9526324159       12.1778436648  W2        10366           0.0000000000
     30522     10174  TIP3      H2            -17.9944905720      -22.8456424159       10.9118336648  W2        10366           0.0000000000
     30523     10175  TIP3      OH2           -16.6579705720      -23.8172724159        9.9756036648  W2        10367           0.0000000000
     30524     10175  TIP3      H1            -16.8769005720      -24.7335324159       10.1452036648  W2        10367           0.0000000000
     30525     10175  TIP3      H2            -15.8337505720      -23.6772324159       10.4417436648  W2        10367           0.0000000000
     30526     10176  TIP3      OH2           -14.1207205720      -23.3473424159       10.8244036648  W2        10368           0.0000000000
     30527     10176  TIP3      H1            -13.9081505720      -24.2354424159       10.5374936648  W2        10368           0.0000000000
     30528     10176  TIP3      H2            -14.0562105720      -23.3815724159       11.7788036648  W2        10368           0.0000000000
     30529     10177  TIP3      OH2           -10.6123505720      -37.6832824159        9.9687336648  W2        10369           0.0000000000
     30530     10177  TIP3      H1            -11.2866705720      -38.3127224159       10.2243136648  W2        10369           0.0000000000
     30531     10177  TIP3      H2            -10.0484305720      -38.1673924159        9.3655236648  W2        10369           0.0000000000
     30532     10178  TIP3      OH2            -5.4696305720      -39.5758824159       10.0814436648  W2        10370           0.0000000000
     30533     10178  TIP3      H1             -4.8658705720      -39.0283424159        9.5795436648  W2        10370           0.0000000000
     30534     10178  TIP3      H2             -6.3394305720      -39.2568424159        9.8408536648  W2        10370           0.0000000000
     30535     10179  TIP3      OH2            -3.7425905720      -38.4370124159        8.4145336648  W2        10371           0.0000000000
     30536     10179  TIP3      H1             -3.1308405720      -38.9514424159        7.8878936648  W2        10371           0.0000000000
     30537     10179  TIP3      H2             -3.3602505720      -37.5598024159        8.4379736648  W2        10371           0.0000000000
     30538     10180  TIP3      OH2           -18.2856005720      -39.0492524159        7.7907236648  W2        10372           0.0000000000
     30539     10180  TIP3      H1            -19.0626205720      -39.2837624159        7.2833136648  W2        10372           0.0000000000
     30540     10180  TIP3      H2            -17.7552405720      -39.8460424159        7.7995236648  W2        10372           0.0000000000
     30541     10181  TIP3      OH2           -19.4492605720      -39.2514424159        3.5943336648  W2        10373           0.0000000000
     30542     10181  TIP3      H1            -19.0101905720      -38.6403924159        3.0026836648  W2        10373           0.0000000000
     30543     10181  TIP3      H2            -20.0830205720      -38.7130324159        4.0683336648  W2        10373           0.0000000000
     30544     10182  TIP3      OH2           -13.7063405720      -39.1225424159        7.6040336648  W2        10374           0.0000000000
     30545     10182  TIP3      H1            -12.8320005720      -38.7341124159        7.5744636648  W2        10374           0.0000000000
     30546     10182  TIP3      H2            -13.8422605720      -39.3377624159        8.5267536648  W2        10374           0.0000000000
     30547     10183  TIP3      OH2            -8.1495005720      -39.0925624159        9.2532036648  W2        10375           0.0000000000
     30548     10183  TIP3      H1             -8.0733405720      -38.9974024159        8.3038036648  W2        10375           0.0000000000
     30549     10183  TIP3      H2             -8.4245805720      -40.0002724159        9.3821136648  W2        10375           0.0000000000
     30550     10184  TIP3      OH2            -6.7962405720      -39.0667824159        4.9457036648  W2        10376           0.0000000000
     30551     10184  TIP3      H1             -7.4991305720      -38.4518624159        4.7358436648  W2        10376           0.0000000000
     30552     10184  TIP3      H2             -7.2411005720      -39.9041124159        5.0767936648  W2        10376           0.0000000000
     30553     10185  TIP3      OH2           -19.5483105720      -23.3032224159        4.4918436648  W2        10377           0.0000000000
     30554     10185  TIP3      H1            -20.2333205720      -23.3413324159        3.8243536648  W2        10377           0.0000000000
     30555     10185  TIP3      H2            -19.5445905720      -22.3904624159        4.7800536648  W2        10377           0.0000000000
     30556     10186  TIP3      OH2           -17.5883505720      -37.3352924159        2.0367436648  W2        10378           0.0000000000
     30557     10186  TIP3      H1            -17.0970105720      -37.9650524159        1.5092936648  W2        10378           0.0000000000
     30558     10186  TIP3      H2            -16.9647205720      -37.0393524159        2.6998636648  W2        10378           0.0000000000
     30559     10187  TIP3      OH2           -12.5623405720      -37.0421424159        4.4937936648  W2        10379           0.0000000000
     30560     10187  TIP3      H1            -12.3842105720      -37.6888224159        5.1766536648  W2        10379           0.0000000000
     30561     10187  TIP3      H2            -12.6157205720      -36.2083724159        4.9609036648  W2        10379           0.0000000000
     30562     10188  TIP3      OH2           -10.6839605720      -22.0937324159        2.8894636648  W2        10380           0.0000000000
     30563     10188  TIP3      H1             -9.8179405720      -21.7269924159        2.7112836648  W2        10380           0.0000000000
     30564     10188  TIP3      H2            -10.9306805720      -22.5329324159        2.0755436648  W2        10380           0.0000000000
     30565     10189  TIP3      OH2            -3.9750005720      -22.5307024159        5.5685736648  W2        10381           0.0000000000
     30566     10189  TIP3      H1             -4.1692905720      -23.2784924159        5.0035336648  W2        10381           0.0000000000
     30567     10189  TIP3      H2             -4.0139905720      -21.7726924159        4.9853636648  W2        10381           0.0000000000
     30568     10190  TIP3      OH2           -18.3278005720      -38.5350624159       17.3083436648  W2        10382           0.0000000000
     30569     10190  TIP3      H1            -18.6939805720      -39.3008024159       17.7508136648  W2        10382           0.0000000000
     30570     10190  TIP3      H2            -17.4149505720      -38.5060424159       17.5948536648  W2        10382           0.0000000000
     30571     10191  TIP3      OH2           -17.7301905720      -22.3831424159        1.5170536648  W2        10384           0.0000000000
     30572     10191  TIP3      H1            -17.9977305720      -22.0968524159        2.3903636648  W2        10384           0.0000000000
     30573     10191  TIP3      H2            -16.9589305720      -22.9292224159        1.6693036648  W2        10384           0.0000000000
     30574     10192  TIP3      OH2            -4.7573805720      -23.7794624159       17.7187536648  W2        10386           0.0000000000
     30575     10192  TIP3      H1             -5.5391905720      -23.9656624159       17.1988136648  W2        10386           0.0000000000
     30576     10192  TIP3      H2             -4.8293905720      -22.8500324159       17.9360036648  W2        10386           0.0000000000
     30577     10193  TIP3      OH2             9.6486594280      -29.8930224159        7.7494736648  W2        10387           0.0000000000
     30578     10193  TIP3      H1              9.7377694280      -28.9492024159        7.6171836648  W2        10387           0.0000000000
     30579     10193  TIP3      H2              9.0104194280      -30.1683824159        7.0914136648  W2        10387           0.0000000000
     30580     10194  TIP3      OH2             8.5817894280      -30.6379524159       11.1682936648  W2        10388           0.0000000000
     30581     10194  TIP3      H1              8.5435394280      -31.2843224159       11.8732536648  W2        10388           0.0000000000
     30582     10194  TIP3      H2              8.2594394280      -31.1045124159       10.3971636648  W2        10388           0.0000000000
     30583     10195  TIP3      OH2             0.9502894280      -31.0237424159       12.7612836648  W2        10389           0.0000000000
     30584     10195  TIP3      H1              0.9914994280      -31.6494124159       13.4845236648  W2        10389           0.0000000000
     30585     10195  TIP3      H2              1.6530594280      -30.3998824159       12.9433236648  W2        10389           0.0000000000
     30586     10196  TIP3      OH2            12.2878094280      -27.6989124159        9.4698036648  W2        10390           0.0000000000
     30587     10196  TIP3      H1             11.8470794280      -28.4193124159        9.9203636648  W2        10390           0.0000000000
     30588     10196  TIP3      H2             12.2747794280      -26.9781924159       10.0995736648  W2        10390           0.0000000000
     30589     10197  TIP3      OH2             1.8735994280      -26.5738524159       11.2961936648  W2        10391           0.0000000000
     30590     10197  TIP3      H1              1.5041194280      -27.3758024159       10.9266236648  W2        10391           0.0000000000
     30591     10197  TIP3      H2              2.8147094280      -26.7423624159       11.3425336648  W2        10391           0.0000000000
     30592     10198  TIP3      OH2            -1.5163505720      -32.9135924159        6.6890736648  W2        10392           0.0000000000
     30593     10198  TIP3      H1             -1.9640105720      -32.0677224159        6.6707236648  W2        10392           0.0000000000
     30594     10198  TIP3      H2             -2.0772305720      -33.4931724159        6.1735836648  W2        10392           0.0000000000
     30595     10199  TIP3      OH2            -0.8057405720      -30.7516324159        8.8148736648  W2        10393           0.0000000000
     30596     10199  TIP3      H1             -0.5923905720      -31.5214724159        9.3421736648  W2        10393           0.0000000000
     30597     10199  TIP3      H2             -0.0679805720      -30.6619624159        8.2116336648  W2        10393           0.0000000000
     30598     10200  TIP3      OH2             9.3993594280      -22.5947424159        9.6818436648  W2        10394           0.0000000000
     30599     10200  TIP3      H1             10.0189994280      -23.2712724159        9.4087636648  W2        10394           0.0000000000
     30600     10200  TIP3      H2              9.1910994280      -22.8126624159       10.5903336648  W2        10394           0.0000000000
     30601     10201  TIP3      OH2             6.9712294280      -28.2058124159       11.5743936648  W2        10395           0.0000000000
     30602     10201  TIP3      H1              7.2750194280      -28.8916724159       10.9798036648  W2        10395           0.0000000000
     30603     10201  TIP3      H2              7.6926294280      -28.0869424159       12.1921936648  W2        10395           0.0000000000
     30604     10202  TIP3      OH2            15.6342094280      -36.6042824159       12.4350136648  W2        10396           0.0000000000
     30605     10202  TIP3      H1             15.6834294280      -35.9941624159       13.1709236648  W2        10396           0.0000000000
     30606     10202  TIP3      H2             16.0597194280      -36.1431924159       11.7121236648  W2        10396           0.0000000000
     30607     10203  TIP3      OH2            10.1119294280      -33.8115724159       11.9018736648  W2        10397           0.0000000000
     30608     10203  TIP3      H1             10.2545194280      -34.7578724159       11.9220336648  W2        10397           0.0000000000
     30609     10203  TIP3      H2             10.0058294280      -33.6045924159       10.9733636648  W2        10397           0.0000000000
     30610     10204  TIP3      OH2             3.2667594280      -35.7099324159        9.1743536648  W2        10398           0.0000000000
     30611     10204  TIP3      H1              3.3098694280      -34.8500824159        8.7559836648  W2        10398           0.0000000000
     30612     10204  TIP3      H2              2.8091694280      -36.2624624159        8.5406736648  W2        10398           0.0000000000
     30613     10205  TIP3      OH2            10.9890294280      -35.5793724159        7.5751836648  W2        10399           0.0000000000
     30614     10205  TIP3      H1             11.6354594280      -35.9080524159        8.1999436648  W2        10399           0.0000000000
     30615     10205  TIP3      H2             11.4989694280      -35.0614724159        6.9523236648  W2        10399           0.0000000000
     30616     10206  TIP3      OH2            -0.1130905720      -33.3133524159        9.9364936648  W2        10400           0.0000000000
     30617     10206  TIP3      H1              0.5405694280      -33.8631824159       10.3685036648  W2        10400           0.0000000000
     30618     10206  TIP3      H2             -0.0891605720      -33.5874524159        9.0196936648  W2        10400           0.0000000000
     30619     10207  TIP3      OH2             5.0433594280      -31.7632224159        9.1516436648  W2        10401           0.0000000000
     30620     10207  TIP3      H1              5.6594594280      -32.2896824159        9.6610436648  W2        10401           0.0000000000
     30621     10207  TIP3      H2              4.4572394280      -32.4033524159        8.7480036648  W2        10401           0.0000000000
     30622     10208  TIP3      OH2            16.0256694280      -35.1263624159       14.6709936648  W2        10402           0.0000000000
     30623     10208  TIP3      H1             15.3371294280      -34.4682924159       14.5756536648  W2        10402           0.0000000000
     30624     10208  TIP3      H2             16.0411294280      -35.3235724159       15.6075336648  W2        10402           0.0000000000
     30625     10209  TIP3      OH2             2.0769494280      -36.7920924159       13.2484336648  W2        10403           0.0000000000
     30626     10209  TIP3      H1              1.8581194280      -36.2620324159       12.4820336648  W2        10403           0.0000000000
     30627     10209  TIP3      H2              1.4090394280      -36.5655424159       13.8955736648  W2        10403           0.0000000000
     30628     10210  TIP3      OH2             9.4459294280      -27.2919824159        6.7923436648  W2        10404           0.0000000000
     30629     10210  TIP3      H1              9.1504394280      -27.6147524159        5.9410336648  W2        10404           0.0000000000
     30630     10210  TIP3      H2              9.1217094280      -26.3923124159        6.8336036648  W2        10404           0.0000000000
     30631     10211  TIP3      OH2             4.6460894280      -29.1165224159       13.5358036648  W2        10405           0.0000000000
     30632     10211  TIP3      H1              3.9059994280      -28.5183724159       13.6393236648  W2        10405           0.0000000000
     30633     10211  TIP3      H2              5.3600394280      -28.5625624159       13.2201636648  W2        10405           0.0000000000
     30634     10212  TIP3      OH2            12.7528694280      -36.2884424159        9.5557736648  W2        10406           0.0000000000
     30635     10212  TIP3      H1             12.5376694280      -37.0541024159       10.0883736648  W2        10406           0.0000000000
     30636     10212  TIP3      H2             13.4086094280      -35.8159824159       10.0686236648  W2        10406           0.0000000000
     30637     10213  TIP3      OH2             1.6706794280      -34.8999124159       11.2006536648  W2        10407           0.0000000000
     30638     10213  TIP3      H1              2.2843094280      -34.2671524159       11.5738936648  W2        10407           0.0000000000
     30639     10213  TIP3      H2              2.1827494280      -35.3724124159       10.5443436648  W2        10407           0.0000000000
     30640     10214  TIP3      OH2             3.0535194280      -27.1522224159       14.3229536648  W2        10408           0.0000000000
     30641     10214  TIP3      H1              3.0482794280      -26.2728724159       13.9448836648  W2        10408           0.0000000000
     30642     10214  TIP3      H2              2.1999294280      -27.2358124159       14.7479436648  W2        10408           0.0000000000
     30643     10215  TIP3      OH2            -0.8253905720      -27.4814324159        5.1048836648  W2        10409           0.0000000000
     30644     10215  TIP3      H1             -1.0973005720      -27.2523324159        4.2161736648  W2        10409           0.0000000000
     30645     10215  TIP3      H2             -0.7798205720      -26.6435524159        5.5654136648  W2        10409           0.0000000000
     30646     10216  TIP3      OH2            12.7995794280      -25.8598424159       11.8177336648  W2        10410           0.0000000000
     30647     10216  TIP3      H1             11.8579494280      -25.8014524159       11.9794236648  W2        10410           0.0000000000
     30648     10216  TIP3      H2             13.0761894280      -24.9537924159       11.6807036648  W2        10410           0.0000000000
     30649     10217  TIP3      OH2            13.1002794280      -37.5733124159       13.2351236648  W2        10411           0.0000000000
     30650     10217  TIP3      H1             12.3641994280      -36.9626024159       13.1972536648  W2        10411           0.0000000000
     30651     10217  TIP3      H2             13.7836794280      -37.1584124159       12.7087636648  W2        10411           0.0000000000
     30652     10218  TIP3      OH2             6.1034194280      -39.4865824159       10.7009236648  W2        10412           0.0000000000
     30653     10218  TIP3      H1              5.9858394280      -40.4349824159       10.6467536648  W2        10412           0.0000000000
     30654     10218  TIP3      H2              5.2484294280      -39.1539724159       10.9740336648  W2        10412           0.0000000000
     30655     10219  TIP3      OH2            11.0516994280      -24.0784924159        8.4428936648  W2        10413           0.0000000000
     30656     10219  TIP3      H1             11.4769294280      -24.7857024159        7.9578536648  W2        10413           0.0000000000
     30657     10219  TIP3      H2             11.3686994280      -23.2772224159        8.0261136648  W2        10413           0.0000000000
     30658     10220  TIP3      OH2            12.2113494280      -26.1776424159        6.9515536648  W2        10414           0.0000000000
     30659     10220  TIP3      H1             11.9538294280      -26.8676324159        6.3401436648  W2        10414           0.0000000000
     30660     10220  TIP3      H2             12.2824294280      -26.6205224159        7.7971436648  W2        10414           0.0000000000
     30661     10221  TIP3      OH2            13.8973694280      -27.6109724159       15.4289036648  W2        10415           0.0000000000
     30662     10221  TIP3      H1             14.0369994280      -28.2027224159       14.6896036648  W2        10415           0.0000000000
     30663     10221  TIP3      H2             14.0646494280      -26.7383824159       15.0727836648  W2        10415           0.0000000000
     30664     10222  TIP3      OH2             8.3699094280      -30.6490224159        5.2015036648  W2        10416           0.0000000000
     30665     10222  TIP3      H1              7.6584594280      -30.1140524159        4.8495536648  W2        10416           0.0000000000
     30666     10222  TIP3      H2              9.0608694280      -30.5938124159        4.5413936648  W2        10416           0.0000000000
     30667     10223  TIP3      OH2             8.4238294280      -32.1915924159        2.2400036648  W2        10417           0.0000000000
     30668     10223  TIP3      H1              9.1248194280      -32.1689024159        2.8914036648  W2        10417           0.0000000000
     30669     10223  TIP3      H2              8.7261194280      -32.8196224159        1.5839336648  W2        10417           0.0000000000
     30670     10224  TIP3      OH2            15.7392994280      -31.2711724159       13.4949436648  W2        10418           0.0000000000
     30671     10224  TIP3      H1             15.0867094280      -30.5766124159       13.5840336648  W2        10418           0.0000000000
     30672     10224  TIP3      H2             16.2043294280      -31.0610824159       12.6851036648  W2        10418           0.0000000000
     30673     10225  TIP3      OH2            11.7756794280      -30.4396924159        6.1530936648  W2        10419           0.0000000000
     30674     10225  TIP3      H1             11.0437794280      -30.2113224159        6.7261536648  W2        10419           0.0000000000
     30675     10225  TIP3      H2             12.2228994280      -31.1534224159        6.6078436648  W2        10419           0.0000000000
     30676     10226  TIP3      OH2            11.6730294280      -32.2654324159       15.2207936648  W2        10420           0.0000000000
     30677     10226  TIP3      H1             11.7529394280      -31.5019924159       15.7926436648  W2        10420           0.0000000000
     30678     10226  TIP3      H2             11.0717994280      -31.9861924159       14.5303036648  W2        10420           0.0000000000
     30679     10227  TIP3      OH2             3.4210494280      -29.8090724159        8.0355936648  W2        10421           0.0000000000
     30680     10227  TIP3      H1              3.0905694280      -30.1797324159        7.2172936648  W2        10421           0.0000000000
     30681     10227  TIP3      H2              4.0094594280      -30.4796724159        8.3824236648  W2        10421           0.0000000000
     30682     10228  TIP3      OH2             4.7877994280      -26.3810124159       10.7168136648  W2        10422           0.0000000000
     30683     10228  TIP3      H1              4.6929294280      -26.9597024159        9.9602736648  W2        10422           0.0000000000
     30684     10228  TIP3      H2              5.5171594280      -26.7524424159       11.2130936648  W2        10422           0.0000000000
     30685     10229  TIP3      OH2             3.7875994280      -31.0405124159       11.6690936648  W2        10423           0.0000000000
     30686     10229  TIP3      H1              4.3528494280      -30.9190924159       10.9062136648  W2        10423           0.0000000000
     30687     10229  TIP3      H2              4.1064894280      -30.4030124159       12.3079436648  W2        10423           0.0000000000
     30688     10230  TIP3      OH2            10.0968194280      -25.5373224159       12.4031436648  W2        10424           0.0000000000
     30689     10230  TIP3      H1              9.8564794280      -24.8750124159       13.0510636648  W2        10424           0.0000000000
     30690     10230  TIP3      H2              9.8986394280      -26.3718024159       12.8281036648  W2        10424           0.0000000000
     30691     10231  TIP3      OH2             4.6676694280      -26.6412424159       16.3862836648  W2        10425           0.0000000000
     30692     10231  TIP3      H1              4.3564194280      -25.8589224159       16.8416036648  W2        10425           0.0000000000
     30693     10231  TIP3      H2              4.0176894280      -26.7943324159       15.7004836648  W2        10425           0.0000000000
     30694     10232  TIP3      OH2            10.6466294280      -31.2774024159        3.8382136648  W2        10426           0.0000000000
     30695     10232  TIP3      H1             11.2261794280      -31.1273724159        4.5851036648  W2        10426           0.0000000000
     30696     10232  TIP3      H2             11.0606294280      -30.8066624159        3.1148536648  W2        10426           0.0000000000
     30697     10233  TIP3      OH2             1.5876594280      -30.4431324159       15.6148536648  W2        10427           0.0000000000
     30698     10233  TIP3      H1              1.6579794280      -29.7924524159       16.3133536648  W2        10427           0.0000000000
     30699     10233  TIP3      H2              0.6968794280      -30.3403824159       15.2799436648  W2        10427           0.0000000000
     30700     10234  TIP3      OH2             8.3731194280      -24.5405524159        7.2735236648  W2        10428           0.0000000000
     30701     10234  TIP3      H1              8.8468794280      -24.2449224159        8.0509436648  W2        10428           0.0000000000
     30702     10234  TIP3      H2              7.8100494280      -23.8023924159        7.0404836648  W2        10428           0.0000000000
     30703     10235  TIP3      OH2             2.9072594280      -24.5697424159       17.1496636648  W2        10429           0.0000000000
     30704     10235  TIP3      H1              2.9147894280      -24.7057724159       16.2022136648  W2        10429           0.0000000000
     30705     10235  TIP3      H2              1.9912994280      -24.6869324159       17.4016636648  W2        10429           0.0000000000
     30706     10236  TIP3      OH2            14.3454694280      -39.5273624159        3.6511836648  W2        10430           0.0000000000
     30707     10236  TIP3      H1             13.4455394280      -39.3884624159        3.9462436648  W2        10430           0.0000000000
     30708     10236  TIP3      H2             14.5973094280      -38.6959024159        3.2493536648  W2        10430           0.0000000000
     30709     10237  TIP3      OH2             2.4113194280      -30.7396424159        5.6248736648  W2        10431           0.0000000000
     30710     10237  TIP3      H1              2.1194494280      -29.9714724159        5.1340036648  W2        10431           0.0000000000
     30711     10237  TIP3      H2              1.7368394280      -31.3990224159        5.4620136648  W2        10431           0.0000000000
     30712     10238  TIP3      OH2            15.5346094280      -25.1611224159        2.0275736648  W2        10432           0.0000000000
     30713     10238  TIP3      H1             15.6079594280      -24.2221024159        2.1981036648  W2        10432           0.0000000000
     30714     10238  TIP3      H2             16.4401194280      -25.4662624159        1.9713036648  W2        10432           0.0000000000
     30715     10239  TIP3      OH2            -1.4956705720      -28.3767224159       14.4398536648  W2        10433           0.0000000000
     30716     10239  TIP3      H1             -1.9968305720      -28.4047824159       13.6248236648  W2        10433           0.0000000000
     30717     10239  TIP3      H2             -1.4903005720      -29.2824024159       14.7495836648  W2        10433           0.0000000000
     30718     10240  TIP3      OH2            -1.7454005720      -25.5963424159       11.3238736648  W2        10434           0.0000000000
     30719     10240  TIP3      H1             -0.7993405720      -25.7406424159       11.3048236648  W2        10434           0.0000000000
     30720     10240  TIP3      H2             -1.8577705720      -24.8120624159       11.8609936648  W2        10434           0.0000000000
     30721     10241  TIP3      OH2            16.4524494280      -24.9303724159       17.0062436648  W2        10435           0.0000000000
     30722     10241  TIP3      H1             16.4031294280      -25.8855624159       16.9690036648  W2        10435           0.0000000000
     30723     10241  TIP3      H2             15.6256794280      -24.6628424159       17.4076236648  W2        10435           0.0000000000
     30724     10242  TIP3      OH2             7.4308494280      -25.3564524159       15.8823836648  W2        10436           0.0000000000
     30725     10242  TIP3      H1              7.5183094280      -24.5299924159       16.3572936648  W2        10436           0.0000000000
     30726     10242  TIP3      H2              6.5673594280      -25.6860724159       16.1313136648  W2        10436           0.0000000000
     30727     10243  TIP3      OH2             7.8454294280      -21.5840824159        5.6884436648  W2        10437           0.0000000000
     30728     10243  TIP3      H1              7.7700294280      -21.7053624159        4.7419636648  W2        10437           0.0000000000
     30729     10243  TIP3      H2              7.8782994280      -20.6348124159        5.8069036648  W2        10437           0.0000000000
     30730     10244  TIP3      OH2             1.4988094280      -22.7953824159        7.4693436648  W2        10438           0.0000000000
     30731     10244  TIP3      H1              1.6508494280      -23.1433424159        8.3479936648  W2        10438           0.0000000000
     30732     10244  TIP3      H2              0.6478494280      -23.1516524159        7.2140636648  W2        10438           0.0000000000
     30733     10245  TIP3      OH2            10.9470294280      -22.4300624159        2.6906836648  W2        10439           0.0000000000
     30734     10245  TIP3      H1             11.3218694280      -23.1744524159        2.2199436648  W2        10439           0.0000000000
     30735     10245  TIP3      H2             10.9513994280      -22.7000024159        3.6090136648  W2        10439           0.0000000000
     30736     10246  TIP3      OH2            10.6158394280      -22.5043524159        5.4399036648  W2        10440           0.0000000000
     30737     10246  TIP3      H1              9.6808194280      -22.4041624159        5.6186036648  W2        10440           0.0000000000
     30738     10246  TIP3      H2             10.8960294280      -23.2137524159        6.0182236648  W2        10440           0.0000000000
     30739     10247  TIP3      OH2            13.6044294280      -33.4371224159       17.4864636648  W2        10441           0.0000000000
     30740     10247  TIP3      H1             13.1971094280      -32.9565624159       16.7657936648  W2        10441           0.0000000000
     30741     10247  TIP3      H2             13.6449994280      -34.3425224159       17.1785436648  W2        10441           0.0000000000
     30742     10248  TIP3      OH2             0.7533794280      -27.0531824159       15.4831336648  W2        10442           0.0000000000
     30743     10248  TIP3      H1              0.9695094280      -27.4146224159       16.3427136648  W2        10442           0.0000000000
     30744     10248  TIP3      H2             -0.1021505720      -27.4278024159       15.2734836648  W2        10442           0.0000000000
     30745     10249  TIP3      OH2             3.3721794280      -38.5831324159       11.4785536648  W2        10443           0.0000000000
     30746     10249  TIP3      H1              2.5105494280      -38.6703124159       11.0708436648  W2        10443           0.0000000000
     30747     10249  TIP3      H2              3.3497494280      -37.7271224159       11.9063136648  W2        10443           0.0000000000
     30748     10250  TIP3      OH2             8.0349594280      -38.8610924159       14.8532536648  W2        10444           0.0000000000
     30749     10250  TIP3      H1              8.4552694280      -39.2763824159       15.6063136648  W2        10444           0.0000000000
     30750     10250  TIP3      H2              7.1019194280      -39.0397624159       14.9704536648  W2        10444           0.0000000000
     30751     10251  TIP3      OH2            11.3614494280      -35.1055724159       15.7067036648  W2        10445           0.0000000000
     30752     10251  TIP3      H1             10.8473994280      -35.2313524159       16.5043036648  W2        10445           0.0000000000
     30753     10251  TIP3      H2             11.2059194280      -34.1932624159       15.4623236648  W2        10445           0.0000000000
     30754     10252  TIP3      OH2            12.1239394280      -30.2445724159        1.4680036648  W2        10446           0.0000000000
     30755     10252  TIP3      H1             12.1660194280      -30.4671824159        0.5380036648  W2        10446           0.0000000000
     30756     10252  TIP3      H2             12.9731494280      -29.8458624159        1.6579936648  W2        10446           0.0000000000
     30757     10253  TIP3      OH2             7.6966894280      -36.3687524159        2.1383336648  W2        10447           0.0000000000
     30758     10253  TIP3      H1              7.4431694280      -36.3495924159        3.0611436648  W2        10447           0.0000000000
     30759     10253  TIP3      H2              7.4398994280      -37.2402124159        1.8369536648  W2        10447           0.0000000000
     30760     10254  TIP3      OH2             3.4631894280      -33.6176824159       12.5735736648  W2        10448           0.0000000000
     30761     10254  TIP3      H1              2.8213994280      -33.6579524159       13.2825836648  W2        10448           0.0000000000
     30762     10254  TIP3      H2              3.5003894280      -32.6912124159       12.3358736648  W2        10448           0.0000000000
     30763     10255  TIP3      OH2             3.4600994280      -33.3966724159        7.4855736648  W2        10449           0.0000000000
     30764     10255  TIP3      H1              2.5673894280      -33.7370624159        7.4269536648  W2        10449           0.0000000000
     30765     10255  TIP3      H2              3.9107594280      -33.7735824159        6.7298936648  W2        10449           0.0000000000
     30766     10256  TIP3      OH2             8.9956494280      -32.9806424159        6.3026536648  W2        10450           0.0000000000
     30767     10256  TIP3      H1              8.5866794280      -32.1657824159        6.0111336648  W2        10450           0.0000000000
     30768     10256  TIP3      H2              9.7162694280      -33.1206324159        5.6883636648  W2        10450           0.0000000000
     30769     10257  TIP3      OH2             8.0978094280      -32.8050024159       17.7907236648  W2        10451           0.0000000000
     30770     10257  TIP3      H1              7.5351894280      -33.5098424159       18.1115036648  W2        10451           0.0000000000
     30771     10257  TIP3      H2              8.9241494280      -32.9258124159       18.2584836648  W2        10451           0.0000000000
     30772     10258  TIP3      OH2            10.0004194280      -33.5346024159        9.1166236648  W2        10452           0.0000000000
     30773     10258  TIP3      H1              9.8048694280      -32.9289224159        8.4016836648  W2        10452           0.0000000000
     30774     10258  TIP3      H2             10.1816794280      -34.3680824159        8.6822536648  W2        10452           0.0000000000
     30775     10259  TIP3      OH2             1.2132394280      -33.2973324159       14.4407736648  W2        10453           0.0000000000
     30776     10259  TIP3      H1              1.1751794280      -32.8971724159       15.3094836648  W2        10453           0.0000000000
     30777     10259  TIP3      H2              0.7223494280      -34.1140924159       14.5310636648  W2        10453           0.0000000000
     30778     10260  TIP3      OH2             4.5789794280      -35.9231024159        1.2393736648  W2        10454           0.0000000000
     30779     10260  TIP3      H1              4.1480494280      -36.3680924159        1.9691136648  W2        10454           0.0000000000
     30780     10260  TIP3      H2              3.8608494280      -35.5514724159        0.7271236648  W2        10454           0.0000000000
     30781     10261  TIP3      OH2            -2.1786805720      -36.1811524159        8.2912436648  W2        10455           0.0000000000
     30782     10261  TIP3      H1             -1.5479105720      -36.2099424159        9.0106336648  W2        10455           0.0000000000
     30783     10261  TIP3      H2             -1.7292505720      -36.6062824159        7.5608336648  W2        10455           0.0000000000
     30784     10262  TIP3      OH2            -0.9044705720      -35.4349524159        3.7152836648  W2        10456           0.0000000000
     30785     10262  TIP3      H1             -0.4303005720      -34.8439624159        3.1303736648  W2        10456           0.0000000000
     30786     10262  TIP3      H2             -1.6218305720      -34.9046624159        4.0622936648  W2        10456           0.0000000000
     30787     10263  TIP3      OH2             9.2643394280      -31.8964724159       13.7878636648  W2        10457           0.0000000000
     30788     10263  TIP3      H1              9.5878194280      -32.5275024159       13.1449136648  W2        10457           0.0000000000
     30789     10263  TIP3      H2              8.8242694280      -32.4312524159       14.4486036648  W2        10457           0.0000000000
     30790     10264  TIP3      OH2             6.0416294280      -35.9689224159        8.5719836648  W2        10458           0.0000000000
     30791     10264  TIP3      H1              5.1307394280      -35.9122424159        8.8605836648  W2        10458           0.0000000000
     30792     10264  TIP3      H2              6.5469194280      -36.0293724159        9.3827036648  W2        10458           0.0000000000
     30793     10265  TIP3      OH2             0.8699694280      -34.3402924159        7.3987436648  W2        10459           0.0000000000
     30794     10265  TIP3      H1             -0.0192305720      -34.2407424159        7.0587036648  W2        10459           0.0000000000
     30795     10265  TIP3      H2              1.1664594280      -35.1819924159        7.0525336648  W2        10459           0.0000000000
     30796     10266  TIP3      OH2             4.5231494280      -34.3400324159        5.0552036648  W2        10460           0.0000000000
     30797     10266  TIP3      H1              5.4546994280      -34.2110324159        5.2335136648  W2        10460           0.0000000000
     30798     10266  TIP3      H2              4.3081794280      -33.6706024159        4.4056736648  W2        10460           0.0000000000
     30799     10267  TIP3      OH2            10.4468194280      -36.7342924159       11.8361636648  W2        10461           0.0000000000
     30800     10267  TIP3      H1              9.7699794280      -36.6029824159       12.5001336648  W2        10461           0.0000000000
     30801     10267  TIP3      H2              9.9613094280      -36.8893424159       11.0259336648  W2        10461           0.0000000000
     30802     10268  TIP3      OH2             3.1971694280      -33.1458124159        2.6218136648  W2        10462           0.0000000000
     30803     10268  TIP3      H1              2.6546794280      -33.5254324159        1.9305736648  W2        10462           0.0000000000
     30804     10268  TIP3      H2              4.0306594280      -32.9513424159        2.1932236648  W2        10462           0.0000000000
     30805     10269  TIP3      OH2             1.3323094280      -28.5886224159       17.7209736648  W2        10464           0.0000000000
     30806     10269  TIP3      H1              2.0645494280      -28.3340324159       18.2824236648  W2        10464           0.0000000000
     30807     10269  TIP3      H2              0.5521794280      -28.3840824159       18.2365136648  W2        10464           0.0000000000
     30808     10270  TIP3      OH2             7.3615994280      -33.1816224159       10.4589436648  W2        10465           0.0000000000
     30809     10270  TIP3      H1              7.9259394280      -33.7279624159        9.9119036648  W2        10465           0.0000000000
     30810     10270  TIP3      H2              7.2139394280      -33.7034324159       11.2477036648  W2        10465           0.0000000000
     30811     10271  TIP3      OH2             2.3635694280      -37.0450124159        6.8774236648  W2        10466           0.0000000000
     30812     10271  TIP3      H1              2.0465194280      -37.9474824159        6.8419636648  W2        10466           0.0000000000
     30813     10271  TIP3      H2              3.1449794280      -37.0432724159        6.3245836648  W2        10466           0.0000000000
     30814     10272  TIP3      OH2             5.9881894280      -34.7930124159       12.8729836648  W2        10467           0.0000000000
     30815     10272  TIP3      H1              5.1527194280      -34.3390624159       12.9832236648  W2        10467           0.0000000000
     30816     10272  TIP3      H2              6.5122494280      -34.5171624159       13.6249736648  W2        10467           0.0000000000
     30817     10273  TIP3      OH2             6.5324494280      -28.5802424159        4.5576236648  W2        10468           0.0000000000
     30818     10273  TIP3      H1              5.7875494280      -29.0877124159        4.2354136648  W2        10468           0.0000000000
     30819     10273  TIP3      H2              6.3981694280      -28.5314424159        5.5041036648  W2        10468           0.0000000000
     30820     10274  TIP3      OH2            13.6823394280      -29.4474224159       13.3443836648  W2        10469           0.0000000000
     30821     10274  TIP3      H1             14.3242194280      -28.9907924159       12.8006036648  W2        10469           0.0000000000
     30822     10274  TIP3      H2             12.8520294280      -29.3341824159       12.8817936648  W2        10469           0.0000000000
     30823     10275  TIP3      OH2            10.4301294280      -35.7662524159        2.7568836648  W2        10470           0.0000000000
     30824     10275  TIP3      H1              9.4915494280      -35.6546924159        2.6057636648  W2        10470           0.0000000000
     30825     10275  TIP3      H2             10.7273394280      -34.9095624159        3.0634536648  W2        10470           0.0000000000
     30826     10276  TIP3      OH2             8.0516594280      -28.3959124159       15.7945336648  W2        10471           0.0000000000
     30827     10276  TIP3      H1              7.7062694280      -28.7776724159       16.6014936648  W2        10471           0.0000000000
     30828     10276  TIP3      H2              7.8516694280      -27.4625524159       15.8658236648  W2        10471           0.0000000000
     30829     10277  TIP3      OH2            11.1484794280      -33.8989824159        4.4176236648  W2        10472           0.0000000000
     30830     10277  TIP3      H1             12.0403794280      -34.0364824159        4.7367436648  W2        10472           0.0000000000
     30831     10277  TIP3      H2             11.2048394280      -33.1083724159        3.8809736648  W2        10472           0.0000000000
     30832     10278  TIP3      OH2             1.6572794280      -29.2852424159       10.3274136648  W2        10473           0.0000000000
     30833     10278  TIP3      H1              2.4019994280      -29.2876724159        9.7260636648  W2        10473           0.0000000000
     30834     10278  TIP3      H2              1.7349394280      -30.1088624159       10.8089236648  W2        10473           0.0000000000
     30835     10279  TIP3      OH2             8.6578594280      -27.1218124159        3.5830836648  W2        10474           0.0000000000
     30836     10279  TIP3      H1              8.3626994280      -26.2950224159        3.9645636648  W2        10474           0.0000000000
     30837     10279  TIP3      H2              7.9548594280      -27.7411224159        3.7792236648  W2        10474           0.0000000000
     30838     10280  TIP3      OH2            -1.3347505720      -30.8245524159       15.6422636648  W2        10475           0.0000000000
     30839     10280  TIP3      H1             -1.1118905720      -31.2425924159       16.4740136648  W2        10475           0.0000000000
     30840     10280  TIP3      H2             -1.9367405720      -31.4370524159       15.2195436648  W2        10475           0.0000000000
     30841     10281  TIP3      OH2            10.3020194280      -25.9343624159       15.7450336648  W2        10477           0.0000000000
     30842     10281  TIP3      H1              9.4014494280      -25.7511024159       15.4774236648  W2        10477           0.0000000000
     30843     10281  TIP3      H2             10.3361294280      -25.6754324159       16.6659136648  W2        10477           0.0000000000
     30844     10282  TIP3      OH2            16.0333494280      -33.6895724159        4.1122936648  W2        10478           0.0000000000
     30845     10282  TIP3      H1             15.4789794280      -34.0857724159        3.4400436648  W2        10478           0.0000000000
     30846     10282  TIP3      H2             16.1337094280      -32.7790524159        3.8346236648  W2        10478           0.0000000000
     30847     10283  TIP3      OH2            15.9965494280      -27.8894024159       16.9494436648  W2        10479           0.0000000000
     30848     10283  TIP3      H1             15.1453994280      -27.6510224159       16.5820836648  W2        10479           0.0000000000
     30849     10283  TIP3      H2             16.5868894280      -27.9060824159       16.1961536648  W2        10479           0.0000000000
     30850     10284  TIP3      OH2            14.3285194280      -24.9035324159        4.5775036648  W2        10480           0.0000000000
     30851     10284  TIP3      H1             13.9556294280      -25.7291524159        4.8865636648  W2        10480           0.0000000000
     30852     10284  TIP3      H2             14.6058694280      -25.0865924159        3.6798436648  W2        10480           0.0000000000
     30853     10285  TIP3      OH2            11.4889094280      -30.0955824159       11.5986936648  W2        10481           0.0000000000
     30854     10285  TIP3      H1             10.5605994280      -30.3273924159       11.5716236648  W2        10481           0.0000000000
     30855     10285  TIP3      H2             11.9400194280      -30.8726024159       11.2685736648  W2        10481           0.0000000000
     30856     10286  TIP3      OH2             4.0322194280      -25.7674224159        7.7315636648  W2        10482           0.0000000000
     30857     10286  TIP3      H1              4.5594394280      -24.9939824159        7.5314436648  W2        10482           0.0000000000
     30858     10286  TIP3      H2              3.1520694280      -25.5425024159        7.4299636648  W2        10482           0.0000000000
     30859     10287  TIP3      OH2            -0.2130105720      -30.9050124159        2.3188036648  W2        10483           0.0000000000
     30860     10287  TIP3      H1              0.4029794280      -30.2782924159        2.6982836648  W2        10483           0.0000000000
     30861     10287  TIP3      H2             -1.0747505720      -30.5890324159        2.5904536648  W2        10483           0.0000000000
     30862     10288  TIP3      OH2             5.4594494280      -28.1044324159        7.3079936648  W2        10484           0.0000000000
     30863     10288  TIP3      H1              5.2184494280      -27.1789924159        7.3495236648  W2        10484           0.0000000000
     30864     10288  TIP3      H2              4.7188094280      -28.5633024159        7.7043836648  W2        10484           0.0000000000
     30865     10289  TIP3      OH2             5.9741094280      -23.9550724159       13.6231036648  W2        10485           0.0000000000
     30866     10289  TIP3      H1              6.3365794280      -23.1005124159       13.3895436648  W2        10485           0.0000000000
     30867     10289  TIP3      H2              6.5056294280      -24.2469124159       14.3637336648  W2        10485           0.0000000000
     30868     10290  TIP3      OH2             4.1425294280      -23.0826724159        6.8532136648  W2        10486           0.0000000000
     30869     10290  TIP3      H1              3.1925794280      -22.9769324159        6.9045436648  W2        10486           0.0000000000
     30870     10290  TIP3      H2              4.4943394280      -22.2619324159        7.1979636648  W2        10486           0.0000000000
     30871     10291  TIP3      OH2             9.5181894280      -27.8560024159       13.3236636648  W2        10487           0.0000000000
     30872     10291  TIP3      H1              9.0923194280      -28.0838324159       14.1500636648  W2        10487           0.0000000000
     30873     10291  TIP3      H2             10.0987694280      -28.5948224159       13.1411936648  W2        10487           0.0000000000
     30874     10292  TIP3      OH2            11.7210794280      -26.9269524159        2.3975636648  W2        10488           0.0000000000
     30875     10292  TIP3      H1             12.0743894280      -27.3069724159        3.2019136648  W2        10488           0.0000000000
     30876     10292  TIP3      H2             10.7724294280      -27.0204724159        2.4844936648  W2        10488           0.0000000000
     30877     10293  TIP3      OH2            12.1766094280      -23.3040524159       15.7931436648  W2        10489           0.0000000000
     30878     10293  TIP3      H1             11.5749294280      -23.8597624159       15.2977736648  W2        10489           0.0000000000
     30879     10293  TIP3      H2             12.4579794280      -22.6370724159       15.1668836648  W2        10489           0.0000000000
     30880     10294  TIP3      OH2            16.2245194280      -22.4477024159        2.5985836648  W2        10490           0.0000000000
     30881     10294  TIP3      H1             16.9683094280      -21.8616524159        2.4587436648  W2        10490           0.0000000000
     30882     10294  TIP3      H2             15.5303294280      -21.8791224159        2.9318236648  W2        10490           0.0000000000
     30883     10295  TIP3      OH2             0.2991994280      -36.0712824159       15.2004036648  W2        10491           0.0000000000
     30884     10295  TIP3      H1             -0.5935705720      -35.7327424159       15.1328036648  W2        10491           0.0000000000
     30885     10295  TIP3      H2              0.2004794280      -36.9266724159       15.6184836648  W2        10491           0.0000000000
     30886     10296  TIP3      OH2            12.5870094280      -28.2547524159        4.6243536648  W2        10492           0.0000000000
     30887     10296  TIP3      H1             12.3097694280      -28.9828224159        5.1804636648  W2        10492           0.0000000000
     30888     10296  TIP3      H2             13.5143094280      -28.1355524159        4.8296136648  W2        10492           0.0000000000
     30889     10297  TIP3      OH2            -0.0496005720      -24.2668424159       13.6353436648  W2        10493           0.0000000000
     30890     10297  TIP3      H1              0.1674294280      -25.1986024159       13.6043136648  W2        10493           0.0000000000
     30891     10297  TIP3      H2              0.1967494280      -23.9923424159       14.5186236648  W2        10493           0.0000000000
     30892     10298  TIP3      OH2             5.8118594280      -25.8153424159        0.8445636648  W2        10494           0.0000000000
     30893     10298  TIP3      H1              6.0508394280      -26.5635324159        0.2974536648  W2        10494           0.0000000000
     30894     10298  TIP3      H2              5.5429894280      -26.2031724159        1.6773436648  W2        10494           0.0000000000
     30895     10299  TIP3      OH2             4.7489194280      -26.2449624159        3.3008236648  W2        10495           0.0000000000
     30896     10299  TIP3      H1              4.8957194280      -26.7649824159        4.0909136648  W2        10495           0.0000000000
     30897     10299  TIP3      H2              4.7460894280      -25.3382024159        3.6074136648  W2        10495           0.0000000000
     30898     10300  TIP3      OH2             1.2020294280      -28.9926324159        3.8113636648  W2        10496           0.0000000000
     30899     10300  TIP3      H1              0.5159594280      -28.6403824159        4.3783336648  W2        10496           0.0000000000
     30900     10300  TIP3      H2              1.7248194280      -28.2296724159        3.5647936648  W2        10496           0.0000000000
     30901     10301  TIP3      OH2             9.0335394280      -36.3302524159       14.0902636648  W2        10497           0.0000000000
     30902     10301  TIP3      H1              9.7323294280      -36.2563824159       14.7402336648  W2        10497           0.0000000000
     30903     10301  TIP3      H2              8.6526794280      -37.1947524159       14.2445536648  W2        10497           0.0000000000
     30904     10302  TIP3      OH2             9.8180294280      -36.6780824159        5.1874936648  W2        10498           0.0000000000
     30905     10302  TIP3      H1             10.0378594280      -36.2065424159        4.3840336648  W2        10498           0.0000000000
     30906     10302  TIP3      H2             10.3764294280      -36.2838224159        5.8575536648  W2        10498           0.0000000000
     30907     10303  TIP3      OH2             7.4866394280      -24.5476024159        4.0502436648  W2        10499           0.0000000000
     30908     10303  TIP3      H1              6.6702494280      -24.0506324159        4.1026736648  W2        10499           0.0000000000
     30909     10303  TIP3      H2              8.0162694280      -24.0722524159        3.4101236648  W2        10499           0.0000000000
     30910     10304  TIP3      OH2             7.0180194280      -34.9502024159        6.0223336648  W2        10500           0.0000000000
     30911     10304  TIP3      H1              7.8302794280      -34.4458824159        6.0685036648  W2        10500           0.0000000000
     30912     10304  TIP3      H2              6.7733194280      -35.0952324159        6.9362936648  W2        10500           0.0000000000
     30913     10305  TIP3      OH2             7.5536594280      -33.9639324159       15.2069936648  W2        10501           0.0000000000
     30914     10305  TIP3      H1              7.6726894280      -33.3903924159       15.9640336648  W2        10501           0.0000000000
     30915     10305  TIP3      H2              8.2091194280      -34.6519924159       15.3217736648  W2        10501           0.0000000000
     30916     10306  TIP3      OH2             7.9016894280      -37.8689024159        6.9604436648  W2        10502           0.0000000000
     30917     10306  TIP3      H1              7.5550394280      -37.2518424159        7.6048736648  W2        10502           0.0000000000
     30918     10306  TIP3      H2              8.5603794280      -37.3683324159        6.4789936648  W2        10502           0.0000000000
     30919     10307  TIP3      OH2             4.8249494280      -23.5038824159        4.0319336648  W2        10503           0.0000000000
     30920     10307  TIP3      H1              4.9858194280      -22.7041324159        3.5311936648  W2        10503           0.0000000000
     30921     10307  TIP3      H2              4.6277294280      -23.1972824159        4.9169936648  W2        10503           0.0000000000
     30922     10308  TIP3      OH2             3.5593894280      -36.8059624159        3.6476936648  W2        10504           0.0000000000
     30923     10308  TIP3      H1              3.4758694280      -35.9176524159        3.9943336648  W2        10504           0.0000000000
     30924     10308  TIP3      H2              4.4494194280      -37.0712924159        3.8793736648  W2        10504           0.0000000000
     30925     10309  TIP3      OH2            13.7582394280      -36.0569024159       16.0419636648  W2        10505           0.0000000000
     30926     10309  TIP3      H1             12.8418194280      -35.7947324159       15.9543336648  W2        10505           0.0000000000
     30927     10309  TIP3      H2             14.0937394280      -36.0600024159       15.1454936648  W2        10505           0.0000000000
     30928     10310  TIP3      OH2            12.3603394280      -32.3068024159       10.1376936648  W2        10506           0.0000000000
     30929     10310  TIP3      H1             11.5627794280      -32.7217824159        9.8091936648  W2        10506           0.0000000000
     30930     10310  TIP3      H2             12.8054494280      -32.9974324159       10.6287436648  W2        10506           0.0000000000
     30931     10311  TIP3      OH2             1.8179194280      -26.3787424159        2.7081436648  W2        10507           0.0000000000
     30932     10311  TIP3      H1              2.4100694280      -25.6792624159        2.9843836648  W2        10507           0.0000000000
     30933     10311  TIP3      H2              2.2772194280      -26.8117924159        1.9886036648  W2        10507           0.0000000000
     30934     10312  TIP3      OH2             0.1338394280      -33.7144424159        1.8240836648  W2        10508           0.0000000000
     30935     10312  TIP3      H1              0.0890994280      -32.7751324159        2.0027836648  W2        10508           0.0000000000
     30936     10312  TIP3      H2             -0.7538405720      -33.9499524159        1.5542936648  W2        10508           0.0000000000
     30937     10313  TIP3      OH2            13.4467994280      -23.0505524159       11.7600436648  W2        10509           0.0000000000
     30938     10313  TIP3      H1             13.2912294280      -22.3721124159       11.1029736648  W2        10509           0.0000000000
     30939     10313  TIP3      H2             14.3794394280      -22.9786224159       11.9631036648  W2        10509           0.0000000000
     30940     10314  TIP3      OH2             0.9420394280      -38.9327824159       10.4971836648  W2        10510           0.0000000000
     30941     10314  TIP3      H1              0.7130194280      -38.8735324159        9.5696836648  W2        10510           0.0000000000
     30942     10314  TIP3      H2              0.4993794280      -39.7242324159       10.8035936648  W2        10510           0.0000000000
     30943     10315  TIP3      OH2            -0.1276305720      -24.9920724159        6.6577636648  W2        10511           0.0000000000
     30944     10315  TIP3      H1             -0.9597705720      -24.5198024159        6.6849036648  W2        10511           0.0000000000
     30945     10315  TIP3      H2              0.4181994280      -24.4823124159        6.0590736648  W2        10511           0.0000000000
     30946     10316  TIP3      OH2             7.8500394280      -23.9522024159        0.9831636648  W2        10514           0.0000000000
     30947     10316  TIP3      H1              7.2061394280      -24.5833424159        1.3045336648  W2        10514           0.0000000000
     30948     10316  TIP3      H2              8.6118694280      -24.4834024159        0.7515136648  W2        10514           0.0000000000
     30949     10317  TIP3      OH2            12.4543294280      -24.1352124159        1.2169636648  W2        10516           0.0000000000
     30950     10317  TIP3      H1             12.7373694280      -24.9296924159        1.6696536648  W2        10516           0.0000000000
     30951     10317  TIP3      H2             13.1941194280      -23.9021124159        0.6560736648  W2        10516           0.0000000000
     30952     10318  TIP3      OH2             3.4090594280      -28.2257224159        1.0744536648  W2        10518           0.0000000000
     30953     10318  TIP3      H1              3.4734694280      -29.0197624159        1.6050936648  W2        10518           0.0000000000
     30954     10318  TIP3      H2              4.0619794280      -28.3444424159        0.3846536648  W2        10518           0.0000000000
     30955     10319  TIP3      OH2             8.7613994280      -27.1785524159        0.8102536648  W2        10520           0.0000000000
     30956     10319  TIP3      H1              8.4928094280      -26.9983424159        1.7111436648  W2        10520           0.0000000000
     30957     10319  TIP3      H2              8.5549594280      -28.1039324159        0.6788336648  W2        10520           0.0000000000
     30958     10320  TIP3      OH2            11.4578194280      -28.6837524159       15.7578636648  W2        10521           0.0000000000
     30959     10320  TIP3      H1             12.2032994280      -28.0953824159       15.6382636648  W2        10521           0.0000000000
     30960     10320  TIP3      H2             10.7004994280      -28.1017824159       15.8211736648  W2        10521           0.0000000000
     30961     10321  TIP3      OH2             4.5584394280      -30.2531024159        3.3802536648  W2        10523           0.0000000000
     30962     10321  TIP3      H1              4.0986394280      -30.7372724159        4.0661036648  W2        10523           0.0000000000
     30963     10321  TIP3      H2              4.8133094280      -30.9215624159        2.7443036648  W2        10523           0.0000000000
     30964     10322  TIP3      OH2             3.8473694280      -32.3603924159       15.7362136648  W2        10524           0.0000000000
     30965     10322  TIP3      H1              3.2289794280      -31.6857324159       16.0166836648  W2        10524           0.0000000000
     30966     10322  TIP3      H2              4.1914894280      -32.0390024159       14.9028336648  W2        10524           0.0000000000
     30967     10323  TIP3      OH2             5.6294794280      -32.0099224159        1.6425736648  W2        10525           0.0000000000
     30968     10323  TIP3      H1              5.4489794280      -32.1648024159        0.7154036648  W2        10525           0.0000000000
     30969     10323  TIP3      H2              6.5795294280      -31.9020524159        1.6873636648  W2        10525           0.0000000000
     30970     10324  TIP3      OH2            15.0193094280      -29.6555024159        1.0883836648  W2        10527           0.0000000000
     30971     10324  TIP3      H1             14.7457894280      -30.0799524159        0.2752136648  W2        10527           0.0000000000
     30972     10324  TIP3      H2             15.0587194280      -28.7240524159        0.8714236648  W2        10527           0.0000000000
     30973     10325  TIP3      OH2             4.1867394280      -35.0053124159       16.8185236648  W2        10528           0.0000000000
     30974     10325  TIP3      H1              4.3368294280      -35.7341824159       16.2164936648  W2        10528           0.0000000000
     30975     10325  TIP3      H2              4.1889794280      -34.2281424159       16.2597436648  W2        10528           0.0000000000
     30976     10326  TIP3      OH2             4.5993094280      -36.6357324159       14.3112636648  W2        10529           0.0000000000
     30977     10326  TIP3      H1              5.1350594280      -36.1840624159       13.6591936648  W2        10529           0.0000000000
     30978     10326  TIP3      H2              3.7472694280      -36.7437524159       13.8886736648  W2        10529           0.0000000000
     30979     10327  TIP3      OH2             6.1811494280      -31.1961124159       14.5507836648  W2        10530           0.0000000000
     30980     10327  TIP3      H1              6.9316294280      -31.3523624159       13.9775636648  W2        10530           0.0000000000
     30981     10327  TIP3      H2              5.8419794280      -30.3444524159       14.2753336648  W2        10530           0.0000000000
     30982     10328  TIP3      OH2            11.9134894280      -30.5924124159       17.6565836648  W2        10532           0.0000000000
     30983     10328  TIP3      H1             11.6319894280      -29.8829524159       17.0789636648  W2        10532           0.0000000000
     30984     10328  TIP3      H2             12.8559194280      -30.6651124159       17.5057036648  W2        10532           0.0000000000
     30985     10329  TIP3      OH2             5.4048594280      -39.1791624159       14.7426236648  W2        10534           0.0000000000
     30986     10329  TIP3      H1              5.3068194280      -38.2328424159       14.6372436648  W2        10534           0.0000000000
     30987     10329  TIP3      H2              4.6624794280      -39.5517824159       14.2669736648  W2        10534           0.0000000000
     30988     10330  TIP3      OH2             9.3845694280      -35.7302724159       17.3818136648  W2        10536           0.0000000000
     30989     10330  TIP3      H1              8.4371094280      -35.6983024159       17.5141436648  W2        10536           0.0000000000
     30990     10330  TIP3      H2              9.6972394280      -36.3555624159       18.0356336648  W2        10536           0.0000000000
     30991     10331  TIP3      OH2             5.6266694280      -39.8854224159       17.4139036648  W2        10539           0.0000000000
     30992     10331  TIP3      H1              6.3385094280      -40.5252024159       17.3998136648  W2        10539           0.0000000000
     30993     10331  TIP3      H2              5.5257094280      -39.6185924159       16.5002136648  W2        10539           0.0000000000
     30994     10332  TIP3      OH2             5.5266494280      -21.3195524159        2.6439336648  W2        10541           0.0000000000
     30995     10332  TIP3      H1              6.4597194280      -21.1616824159        2.7877736648  W2        10541           0.0000000000
     30996     10332  TIP3      H2              5.2625294280      -20.6442524159        2.0190836648  W2        10541           0.0000000000
     30997     10333  TIP3      OH2            -0.9048605720      -26.6831724159        2.1267436648  W2        10542           0.0000000000
     30998     10333  TIP3      H1              0.0090594280      -26.6042824159        2.4001336648  W2        10542           0.0000000000
     30999     10333  TIP3      H2             -0.8975505720      -27.3702124159        1.4603036648  W2        10542           0.0000000000
     31000     10334  TIP3      OH2            -2.2558005720      -21.2903224159        7.2041336648  W2        10543           0.0000000000
     31001     10334  TIP3      H1             -2.9030905720      -21.7521524159        6.6712536648  W2        10543           0.0000000000
     31002     10334  TIP3      H2             -1.9013405720      -21.9619924159        7.7867536648  W2        10543           0.0000000000
     31003     10335  TIP3      OH2            -1.3858805720      -23.2096224159        9.0087536648  W2        10544           0.0000000000
     31004     10335  TIP3      H1             -1.7202005720      -24.0898924159        9.1807736648  W2        10544           0.0000000000
     31005     10335  TIP3      H2             -1.1636405720      -22.8641224159        9.8733136648  W2        10544           0.0000000000
     31006     10336  TIP3      OH2            16.1625994280      -22.3999824159       11.9892336648  W2        10545           0.0000000000
     31007     10336  TIP3      H1             16.1412694280      -22.2151424159       12.9281736648  W2        10545           0.0000000000
     31008     10336  TIP3      H2             16.8532194280      -21.8315824159       11.6483736648  W2        10545           0.0000000000
     31009     10337  TIP3      OH2            15.7258894280      -22.8328724159       14.9111436648  W2        10546           0.0000000000
     31010     10337  TIP3      H1             15.2387594280      -23.5684624159       14.5398836648  W2        10546           0.0000000000
     31011     10337  TIP3      H2             16.2751594280      -23.2264824159       15.5890836648  W2        10546           0.0000000000
     31012     10338  TIP3      OH2            15.4775894280      -28.7866924159        5.0634236648  W2        10548           0.0000000000
     31013     10338  TIP3      H1             16.3277294280      -28.3656024159        5.1905836648  W2        10548           0.0000000000
     31014     10338  TIP3      H2             15.4830994280      -29.5266824159        5.6705636648  W2        10548           0.0000000000
     31015     10339  TIP3      OH2            15.8721494280      -30.7329524159        6.8869936648  W2        10549           0.0000000000
     31016     10339  TIP3      H1             15.1456094280      -31.2126924159        7.2847536648  W2        10549           0.0000000000
     31017     10339  TIP3      H2             16.4534794280      -30.5274824159        7.6191536648  W2        10549           0.0000000000
     31018     10340  TIP3      OH2            15.6312694280      -27.9482024159       11.8347536648  W2        10550           0.0000000000
     31019     10340  TIP3      H1             16.4646894280      -28.3262024159       11.5541136648  W2        10550           0.0000000000
     31020     10340  TIP3      H2             15.7432994280      -27.0050824159       11.7156636648  W2        10550           0.0000000000
     31021     10341  TIP3      OH2            14.1174994280      -25.0704524159       14.1415936648  W2        10551           0.0000000000
     31022     10341  TIP3      H1             13.4700294280      -24.7453024159       14.7671136648  W2        10551           0.0000000000
     31023     10341  TIP3      H2             13.5998994280      -25.5106824159       13.4674236648  W2        10551           0.0000000000
     31024     10342  TIP3      OH2            16.1404594280      -30.8321024159        3.2781236648  W2        10552           0.0000000000
     31025     10342  TIP3      H1             15.6185694280      -30.4756924159        2.5592136648  W2        10552           0.0000000000
     31026     10342  TIP3      H2             16.1073794280      -30.1573224159        3.9562136648  W2        10552           0.0000000000
     31027     10343  TIP3      OH2            14.4893594280      -33.5925424159        1.8288336648  W2        10553           0.0000000000
     31028     10343  TIP3      H1             14.5857994280      -32.9258424159        1.1488036648  W2        10553           0.0000000000
     31029     10343  TIP3      H2             14.3493194280      -34.4079124159        1.3473836648  W2        10553           0.0000000000
     31030     10344  TIP3      OH2            13.6588294280      -32.2123024159        7.4498636648  W2        10554           0.0000000000
     31031     10344  TIP3      H1             13.5087094280      -33.1574424159        7.4296436648  W2        10554           0.0000000000
     31032     10344  TIP3      H2             13.3052794280      -31.9311624159        8.2937736648  W2        10554           0.0000000000
     31033     10345  TIP3      OH2            -1.3059305720      -30.1340824159       11.4602436648  W2        10555           0.0000000000
     31034     10345  TIP3      H1             -1.1216405720      -30.2159124159       10.5245336648  W2        10555           0.0000000000
     31035     10345  TIP3      H2             -0.4566405720      -30.2583824159       11.8838836648  W2        10555           0.0000000000
     31036     10346  TIP3      OH2            14.5151194280      -30.2419724159       17.0886936648  W2        10556           0.0000000000
     31037     10346  TIP3      H1             15.0978494280      -30.9767424159       17.2804136648  W2        10556           0.0000000000
     31038     10346  TIP3      H2             15.0790494280      -29.4699424159       17.1352736648  W2        10556           0.0000000000
     31039     10347  TIP3      OH2            16.0118294280      -32.3393924159       17.7732336648  W2        10557           0.0000000000
     31040     10347  TIP3      H1             15.1484994280      -32.7181824159       17.6077036648  W2        10557           0.0000000000
     31041     10347  TIP3      H2             16.6161994280      -33.0779124159       17.6988136648  W2        10557           0.0000000000
     31042     10348  TIP3      OH2            13.7367394280      -36.1845624159        0.9463836648  W2        10558           0.0000000000
     31043     10348  TIP3      H1             14.3473194280      -36.5558824159        1.5832036648  W2        10558           0.0000000000
     31044     10348  TIP3      H2             12.8998894280      -36.6058724159        1.1423836648  W2        10558           0.0000000000
     31045     10349  TIP3      OH2            13.3693094280      -34.6297224159        5.9123736648  W2        10559           0.0000000000
     31046     10349  TIP3      H1             13.6490194280      -35.5366824159        6.0365436648  W2        10559           0.0000000000
     31047     10349  TIP3      H2             14.1284794280      -34.1955724159        5.5232936648  W2        10559           0.0000000000
     31048     10350  TIP3      OH2            13.9811394280      -34.0479824159       11.3482636648  W2        10560           0.0000000000
     31049     10350  TIP3      H1             14.9139394280      -33.8359924159       11.3138636648  W2        10560           0.0000000000
     31050     10350  TIP3      H2             13.7458894280      -33.9467724159       12.2705636648  W2        10560           0.0000000000
     31051     10351  TIP3      OH2            14.0103294280      -33.3114524159       14.1242036648  W2        10561           0.0000000000
     31052     10351  TIP3      H1             13.1674594280      -33.0434124159       14.4901836648  W2        10561           0.0000000000
     31053     10351  TIP3      H2             14.4527594280      -32.4892624159       13.9133136648  W2        10561           0.0000000000
     31054     10352  TIP3      OH2            -1.7084505720      -34.8635824159       17.6011236648  W2        10562           0.0000000000
     31055     10352  TIP3      H1             -0.7889605720      -34.9857524159       17.8374336648  W2        10562           0.0000000000
     31056     10352  TIP3      H2             -2.1580005720      -35.6136124159       17.9904736648  W2        10562           0.0000000000
     31057     10353  TIP3      OH2            13.9827894280      -37.3667924159        5.9605736648  W2        10564           0.0000000000
     31058     10353  TIP3      H1             14.1652894280      -37.8156424159        6.7860736648  W2        10564           0.0000000000
     31059     10353  TIP3      H2             13.3830794280      -37.9513524159        5.4970336648  W2        10564           0.0000000000
     31060     10354  TIP3      OH2            -0.4872005720      -36.5514224159       10.4924136648  W2        10565           0.0000000000
     31061     10354  TIP3      H1             -0.0420405720      -37.3431724159       10.7943836648  W2        10565           0.0000000000
     31062     10354  TIP3      H2             -0.0209005720      -35.8349024159       10.9229736648  W2        10565           0.0000000000
     31063     10355  TIP3      OH2            -2.1831705720      -33.5521224159       11.5614336648  W2        10566           0.0000000000
     31064     10355  TIP3      H1             -1.6911905720      -33.7730724159       10.7706336648  W2        10566           0.0000000000
     31065     10355  TIP3      H2             -1.8210805720      -32.7117824159       11.8423836648  W2        10566           0.0000000000
     31066     10356  TIP3      OH2            15.8494094280      -37.2989824159        2.4886036648  W2        10568           0.0000000000
     31067     10356  TIP3      H1             16.2616694280      -38.0204124159        2.0134036648  W2        10568           0.0000000000
     31068     10356  TIP3      H2             16.5310594280      -36.6295224159        2.5470336648  W2        10568           0.0000000000
     31069     10357  TIP3      OH2            -1.8695205720      -37.2942124159        5.6156736648  W2        10569           0.0000000000
     31070     10357  TIP3      H1             -2.7946805720      -37.0855524159        5.4862236648  W2        10569           0.0000000000
     31071     10357  TIP3      H2             -1.4155305720      -36.8101324159        4.9259036648  W2        10569           0.0000000000
     31072     10358  TIP3      OH2            12.9011994280      -22.3100424159        7.5614136648  W2        10570           0.0000000000
     31073     10358  TIP3      H1             13.5534894280      -22.6578324159        6.9533236648  W2        10570           0.0000000000
     31074     10358  TIP3      H2             13.4115794280      -21.8217224159        8.2073836648  W2        10570           0.0000000000
     31075     10359  TIP3      OH2            -1.9059805720      -38.5563124159       13.9599236648  W2        10571           0.0000000000
     31076     10359  TIP3      H1             -2.5709305720      -38.8022824159       14.6030136648  W2        10571           0.0000000000
     31077     10359  TIP3      H2             -2.3488505720      -37.9342724159       13.3827236648  W2        10571           0.0000000000
     31078     10360  TIP3      OH2             3.2402394280      -24.4067824159       14.3629036648  W2        10573           0.0000000000
     31079     10360  TIP3      H1              2.8153494280      -23.5969324159       14.0803636648  W2        10573           0.0000000000
     31080     10360  TIP3      H2              4.1445194280      -24.3213724159       14.0608836648  W2        10573           0.0000000000
     31081     10361  TIP3      OH2             7.5513794280      -23.0077824159       17.3222736648  W2        10574           0.0000000000
     31082     10361  TIP3      H1              7.7361294280      -23.3411724159       18.2003036648  W2        10574           0.0000000000
     31083     10361  TIP3      H2              8.3978294280      -22.6979224159       17.0001936648  W2        10574           0.0000000000
     31084     10362  TIP3      OH2             9.8964194280      -21.7218924159       16.5664136648  W2        10575           0.0000000000
     31085     10362  TIP3      H1             10.5733094280      -22.3546624159       16.3263336648  W2        10575           0.0000000000
     31086     10362  TIP3      H2             10.2182994280      -21.3208424159       17.3737436648  W2        10575           0.0000000000
     31087     10363  TIP3      OH2            14.8137994280      -39.1323424159       15.6459136648  W2        10576           0.0000000000
     31088     10363  TIP3      H1             14.0011494280      -38.8073124159       15.2583836648  W2        10576           0.0000000000
     31089     10363  TIP3      H2             15.0466494280      -39.8924924159       15.1128236648  W2        10576           0.0000000000
     31090     10364  TIP3      OH2             0.6419094280      -21.1503924159       14.4104336648  W2        10577           0.0000000000
     31091     10364  TIP3      H1             -0.0784505720      -20.7102924159       13.9592036648  W2        10577           0.0000000000
     31092     10364  TIP3      H2              0.2763094280      -21.4009224159       15.2588336648  W2        10577           0.0000000000
     31093     10365  TIP3      OH2             3.1091694280      -21.5500024159       13.4401536648  W2        10578           0.0000000000
     31094     10365  TIP3      H1              2.2443894280      -21.4781524159       13.8441636648  W2        10578           0.0000000000
     31095     10365  TIP3      H2              3.0540694280      -21.0032724159       12.6564036648  W2        10578           0.0000000000
     31096     10366  TIP3      OH2             7.8197294280      -21.6621124159       12.6157536648  W2        10579           0.0000000000
     31097     10366  TIP3      H1              7.3631294280      -21.1331424159       11.9615936648  W2        10579           0.0000000000
     31098     10366  TIP3      H2              7.9825294280      -21.0589724159       13.3409836648  W2        10579           0.0000000000
     31099     10367  TIP3      OH2            10.1473594280      -22.7841524159       13.5607836648  W2        10580           0.0000000000
     31100     10367  TIP3      H1              9.2427294280      -22.6191324159       13.2949936648  W2        10580           0.0000000000
     31101     10367  TIP3      H2             10.5762194280      -21.9309324159       13.4951236648  W2        10580           0.0000000000
     31102     10368  TIP3      OH2            12.7515494280      -21.2142424159       13.8555636648  W2        10581           0.0000000000
     31103     10368  TIP3      H1             12.5697494280      -20.2983524159       13.6450536648  W2        10581           0.0000000000
     31104     10368  TIP3      H2             12.9283294280      -21.6245324159       13.0090236648  W2        10581           0.0000000000
     31105     10369  TIP3      OH2             0.0567194280      -22.5271424159       11.3206136648  W2        10582           0.0000000000
     31106     10369  TIP3      H1              0.0383194280      -22.9526324159       12.1778436648  W2        10582           0.0000000000
     31107     10369  TIP3      H2              0.8615094280      -22.8456424159       10.9118336648  W2        10582           0.0000000000
     31108     10370  TIP3      OH2             2.1980294280      -23.8172724159        9.9756036648  W2        10583           0.0000000000
     31109     10370  TIP3      H1              1.9790994280      -24.7335324159       10.1452036648  W2        10583           0.0000000000
     31110     10370  TIP3      H2              3.0222494280      -23.6772324159       10.4417436648  W2        10583           0.0000000000
     31111     10371  TIP3      OH2             4.7352794280      -23.3473424159       10.8244036648  W2        10584           0.0000000000
     31112     10371  TIP3      H1              4.9478494280      -24.2354424159       10.5374936648  W2        10584           0.0000000000
     31113     10371  TIP3      H2              4.7997894280      -23.3815724159       11.7788036648  W2        10584           0.0000000000
     31114     10372  TIP3      OH2             8.2436494280      -37.6832824159        9.9687336648  W2        10585           0.0000000000
     31115     10372  TIP3      H1              7.5693294280      -38.3127224159       10.2243136648  W2        10585           0.0000000000
     31116     10372  TIP3      H2              8.8075694280      -38.1673924159        9.3655236648  W2        10585           0.0000000000
     31117     10373  TIP3      OH2            13.3863694280      -39.5758824159       10.0814436648  W2        10586           0.0000000000
     31118     10373  TIP3      H1             13.9901294280      -39.0283424159        9.5795436648  W2        10586           0.0000000000
     31119     10373  TIP3      H2             12.5165694280      -39.2568424159        9.8408536648  W2        10586           0.0000000000
     31120     10374  TIP3      OH2            15.1134094280      -38.4370124159        8.4145336648  W2        10587           0.0000000000
     31121     10374  TIP3      H1             15.7251594280      -38.9514424159        7.8878936648  W2        10587           0.0000000000
     31122     10374  TIP3      H2             15.4957494280      -37.5598024159        8.4379736648  W2        10587           0.0000000000
     31123     10375  TIP3      OH2             0.5703994280      -39.0492524159        7.7907236648  W2        10588           0.0000000000
     31124     10375  TIP3      H1             -0.2066205720      -39.2837624159        7.2833136648  W2        10588           0.0000000000
     31125     10375  TIP3      H2              1.1007594280      -39.8460424159        7.7995236648  W2        10588           0.0000000000
     31126     10376  TIP3      OH2            -0.5932605720      -39.2514424159        3.5943336648  W2        10589           0.0000000000
     31127     10376  TIP3      H1             -0.1541905720      -38.6403924159        3.0026836648  W2        10589           0.0000000000
     31128     10376  TIP3      H2             -1.2270205720      -38.7130324159        4.0683336648  W2        10589           0.0000000000
     31129     10377  TIP3      OH2             5.1496594280      -39.1225424159        7.6040336648  W2        10590           0.0000000000
     31130     10377  TIP3      H1              6.0239994280      -38.7341124159        7.5744636648  W2        10590           0.0000000000
     31131     10377  TIP3      H2              5.0137394280      -39.3377624159        8.5267536648  W2        10590           0.0000000000
     31132     10378  TIP3      OH2            10.7064994280      -39.0925624159        9.2532036648  W2        10591           0.0000000000
     31133     10378  TIP3      H1             10.7826594280      -38.9974024159        8.3038036648  W2        10591           0.0000000000
     31134     10378  TIP3      H2             10.4314194280      -40.0002724159        9.3821136648  W2        10591           0.0000000000
     31135     10379  TIP3      OH2            12.0597594280      -39.0667824159        4.9457036648  W2        10592           0.0000000000
     31136     10379  TIP3      H1             11.3568694280      -38.4518624159        4.7358436648  W2        10592           0.0000000000
     31137     10379  TIP3      H2             11.6148994280      -39.9041124159        5.0767936648  W2        10592           0.0000000000
     31138     10380  TIP3      OH2            -0.6923105720      -23.3032224159        4.4918436648  W2        10593           0.0000000000
     31139     10380  TIP3      H1             -1.3773205720      -23.3413324159        3.8243536648  W2        10593           0.0000000000
     31140     10380  TIP3      H2             -0.6885905720      -22.3904624159        4.7800536648  W2        10593           0.0000000000
     31141     10381  TIP3      OH2             1.2676494280      -37.3352924159        2.0367436648  W2        10594           0.0000000000
     31142     10381  TIP3      H1              1.7589894280      -37.9650524159        1.5092936648  W2        10594           0.0000000000
     31143     10381  TIP3      H2              1.8912794280      -37.0393524159        2.6998636648  W2        10594           0.0000000000
     31144     10382  TIP3      OH2             6.2936594280      -37.0421424159        4.4937936648  W2        10595           0.0000000000
     31145     10382  TIP3      H1              6.4717894280      -37.6888224159        5.1766536648  W2        10595           0.0000000000
     31146     10382  TIP3      H2              6.2402794280      -36.2083724159        4.9609036648  W2        10595           0.0000000000
     31147     10383  TIP3      OH2             8.1720394280      -22.0937324159        2.8894636648  W2        10596           0.0000000000
     31148     10383  TIP3      H1              9.0380594280      -21.7269924159        2.7112836648  W2        10596           0.0000000000
     31149     10383  TIP3      H2              7.9253194280      -22.5329324159        2.0755436648  W2        10596           0.0000000000
     31150     10384  TIP3      OH2            14.8809994280      -22.5307024159        5.5685736648  W2        10597           0.0000000000
     31151     10384  TIP3      H1             14.6867094280      -23.2784924159        5.0035336648  W2        10597           0.0000000000
     31152     10384  TIP3      H2             14.8420094280      -21.7726924159        4.9853636648  W2        10597           0.0000000000
     31153     10385  TIP3      OH2             0.5281994280      -38.5350624159       17.3083436648  W2        10598           0.0000000000
     31154     10385  TIP3      H1              0.1620194280      -39.3008024159       17.7508136648  W2        10598           0.0000000000
     31155     10385  TIP3      H2              1.4410494280      -38.5060424159       17.5948536648  W2        10598           0.0000000000
     31156     10386  TIP3      OH2             1.1258094280      -22.3831424159        1.5170536648  W2        10600           0.0000000000
     31157     10386  TIP3      H1              0.8582694280      -22.0968524159        2.3903636648  W2        10600           0.0000000000
     31158     10386  TIP3      H2              1.8970694280      -22.9292224159        1.6693036648  W2        10600           0.0000000000
     31159     10387  TIP3      OH2            14.0986194280      -23.7794624159       17.7187536648  W2        10602           0.0000000000
     31160     10387  TIP3      H1             13.3168094280      -23.9656624159       17.1988136648  W2        10602           0.0000000000
     31161     10387  TIP3      H2             14.0266094280      -22.8500324159       17.9360036648  W2        10602           0.0000000000
     31162     10388  TIP3      OH2            28.5046594280      -29.8930224159        7.7494736648  W2        10603           0.0000000000
     31163     10388  TIP3      H1             28.5937694280      -28.9492024159        7.6171836648  W2        10603           0.0000000000
     31164     10388  TIP3      H2             27.8664194280      -30.1683824159        7.0914136648  W2        10603           0.0000000000
     31165     10389  TIP3      OH2            27.4377894280      -30.6379524159       11.1682936648  W2        10604           0.0000000000
     31166     10389  TIP3      H1             27.3995394280      -31.2843224159       11.8732536648  W2        10604           0.0000000000
     31167     10389  TIP3      H2             27.1154394280      -31.1045124159       10.3971636648  W2        10604           0.0000000000
     31168     10390  TIP3      OH2            19.8062894280      -31.0237424159       12.7612836648  W2        10605           0.0000000000
     31169     10390  TIP3      H1             19.8474994280      -31.6494124159       13.4845236648  W2        10605           0.0000000000
     31170     10390  TIP3      H2             20.5090594280      -30.3998824159       12.9433236648  W2        10605           0.0000000000
     31171     10391  TIP3      OH2            31.1438094280      -27.6989124159        9.4698036648  W2        10606           0.0000000000
     31172     10391  TIP3      H1             30.7030794280      -28.4193124159        9.9203636648  W2        10606           0.0000000000
     31173     10391  TIP3      H2             31.1307794280      -26.9781924159       10.0995736648  W2        10606           0.0000000000
     31174     10392  TIP3      OH2            20.7295994280      -26.5738524159       11.2961936648  W2        10607           0.0000000000
     31175     10392  TIP3      H1             20.3601194280      -27.3758024159       10.9266236648  W2        10607           0.0000000000
     31176     10392  TIP3      H2             21.6707094280      -26.7423624159       11.3425336648  W2        10607           0.0000000000
     31177     10393  TIP3      OH2            17.3396494280      -32.9135924159        6.6890736648  W2        10608           0.0000000000
     31178     10393  TIP3      H1             16.8919894280      -32.0677224159        6.6707236648  W2        10608           0.0000000000
     31179     10393  TIP3      H2             16.7787694280      -33.4931724159        6.1735836648  W2        10608           0.0000000000
     31180     10394  TIP3      OH2            18.0502594280      -30.7516324159        8.8148736648  W2        10609           0.0000000000
     31181     10394  TIP3      H1             18.2636094280      -31.5214724159        9.3421736648  W2        10609           0.0000000000
     31182     10394  TIP3      H2             18.7880194280      -30.6619624159        8.2116336648  W2        10609           0.0000000000
     31183     10395  TIP3      OH2            28.2553594280      -22.5947424159        9.6818436648  W2        10610           0.0000000000
     31184     10395  TIP3      H1             28.8749994280      -23.2712724159        9.4087636648  W2        10610           0.0000000000
     31185     10395  TIP3      H2             28.0470994280      -22.8126624159       10.5903336648  W2        10610           0.0000000000
     31186     10396  TIP3      OH2            25.8272294280      -28.2058124159       11.5743936648  W2        10611           0.0000000000
     31187     10396  TIP3      H1             26.1310194280      -28.8916724159       10.9798036648  W2        10611           0.0000000000
     31188     10396  TIP3      H2             26.5486294280      -28.0869424159       12.1921936648  W2        10611           0.0000000000
     31189     10397  TIP3      OH2            34.4902094280      -36.6042824159       12.4350136648  W2        10612           0.0000000000
     31190     10397  TIP3      H1             34.5394294280      -35.9941624159       13.1709236648  W2        10612           0.0000000000
     31191     10397  TIP3      H2             34.9157194280      -36.1431924159       11.7121236648  W2        10612           0.0000000000
     31192     10398  TIP3      OH2            28.9679294280      -33.8115724159       11.9018736648  W2        10613           0.0000000000
     31193     10398  TIP3      H1             29.1105194280      -34.7578724159       11.9220336648  W2        10613           0.0000000000
     31194     10398  TIP3      H2             28.8618294280      -33.6045924159       10.9733636648  W2        10613           0.0000000000
     31195     10399  TIP3      OH2            22.1227594280      -35.7099324159        9.1743536648  W2        10614           0.0000000000
     31196     10399  TIP3      H1             22.1658694280      -34.8500824159        8.7559836648  W2        10614           0.0000000000
     31197     10399  TIP3      H2             21.6651694280      -36.2624624159        8.5406736648  W2        10614           0.0000000000
     31198     10400  TIP3      OH2            29.8450294280      -35.5793724159        7.5751836648  W2        10615           0.0000000000
     31199     10400  TIP3      H1             30.4914594280      -35.9080524159        8.1999436648  W2        10615           0.0000000000
     31200     10400  TIP3      H2             30.3549694280      -35.0614724159        6.9523236648  W2        10615           0.0000000000
     31201     10401  TIP3      OH2            18.7429094280      -33.3133524159        9.9364936648  W2        10616           0.0000000000
     31202     10401  TIP3      H1             19.3965694280      -33.8631824159       10.3685036648  W2        10616           0.0000000000
     31203     10401  TIP3      H2             18.7668394280      -33.5874524159        9.0196936648  W2        10616           0.0000000000
     31204     10402  TIP3      OH2            23.8993594280      -31.7632224159        9.1516436648  W2        10617           0.0000000000
     31205     10402  TIP3      H1             24.5154594280      -32.2896824159        9.6610436648  W2        10617           0.0000000000
     31206     10402  TIP3      H2             23.3132394280      -32.4033524159        8.7480036648  W2        10617           0.0000000000
     31207     10403  TIP3      OH2            34.8816694280      -35.1263624159       14.6709936648  W2        10618           0.0000000000
     31208     10403  TIP3      H1             34.1931294280      -34.4682924159       14.5756536648  W2        10618           0.0000000000
     31209     10403  TIP3      H2             34.8971294280      -35.3235724159       15.6075336648  W2        10618           0.0000000000
     31210     10404  TIP3      OH2            20.9329494280      -36.7920924159       13.2484336648  W2        10619           0.0000000000
     31211     10404  TIP3      H1             20.7141194280      -36.2620324159       12.4820336648  W2        10619           0.0000000000
     31212     10404  TIP3      H2             20.2650394280      -36.5655424159       13.8955736648  W2        10619           0.0000000000
     31213     10405  TIP3      OH2            28.3019294280      -27.2919824159        6.7923436648  W2        10620           0.0000000000
     31214     10405  TIP3      H1             28.0064394280      -27.6147524159        5.9410336648  W2        10620           0.0000000000
     31215     10405  TIP3      H2             27.9777094280      -26.3923124159        6.8336036648  W2        10620           0.0000000000
     31216     10406  TIP3      OH2            23.5020894280      -29.1165224159       13.5358036648  W2        10621           0.0000000000
     31217     10406  TIP3      H1             22.7619994280      -28.5183724159       13.6393236648  W2        10621           0.0000000000
     31218     10406  TIP3      H2             24.2160394280      -28.5625624159       13.2201636648  W2        10621           0.0000000000
     31219     10407  TIP3      OH2            31.6088694280      -36.2884424159        9.5557736648  W2        10622           0.0000000000
     31220     10407  TIP3      H1             31.3936694280      -37.0541024159       10.0883736648  W2        10622           0.0000000000
     31221     10407  TIP3      H2             32.2646094280      -35.8159824159       10.0686236648  W2        10622           0.0000000000
     31222     10408  TIP3      OH2            20.5266794280      -34.8999124159       11.2006536648  W2        10623           0.0000000000
     31223     10408  TIP3      H1             21.1403094280      -34.2671524159       11.5738936648  W2        10623           0.0000000000
     31224     10408  TIP3      H2             21.0387494280      -35.3724124159       10.5443436648  W2        10623           0.0000000000
     31225     10409  TIP3      OH2            21.9095194280      -27.1522224159       14.3229536648  W2        10624           0.0000000000
     31226     10409  TIP3      H1             21.9042794280      -26.2728724159       13.9448836648  W2        10624           0.0000000000
     31227     10409  TIP3      H2             21.0559294280      -27.2358124159       14.7479436648  W2        10624           0.0000000000
     31228     10410  TIP3      OH2            18.0306094280      -27.4814324159        5.1048836648  W2        10625           0.0000000000
     31229     10410  TIP3      H1             17.7586994280      -27.2523324159        4.2161736648  W2        10625           0.0000000000
     31230     10410  TIP3      H2             18.0761794280      -26.6435524159        5.5654136648  W2        10625           0.0000000000
     31231     10411  TIP3      OH2            31.6555794280      -25.8598424159       11.8177336648  W2        10626           0.0000000000
     31232     10411  TIP3      H1             30.7139494280      -25.8014524159       11.9794236648  W2        10626           0.0000000000
     31233     10411  TIP3      H2             31.9321894280      -24.9537924159       11.6807036648  W2        10626           0.0000000000
     31234     10412  TIP3      OH2            31.9562794280      -37.5733124159       13.2351236648  W2        10627           0.0000000000
     31235     10412  TIP3      H1             31.2201994280      -36.9626024159       13.1972536648  W2        10627           0.0000000000
     31236     10412  TIP3      H2             32.6396794280      -37.1584124159       12.7087636648  W2        10627           0.0000000000
     31237     10413  TIP3      OH2            24.9594194280      -39.4865824159       10.7009236648  W2        10628           0.0000000000
     31238     10413  TIP3      H1             24.8418394280      -40.4349824159       10.6467536648  W2        10628           0.0000000000
     31239     10413  TIP3      H2             24.1044294280      -39.1539724159       10.9740336648  W2        10628           0.0000000000
     31240     10414  TIP3      OH2            29.9076994280      -24.0784924159        8.4428936648  W2        10629           0.0000000000
     31241     10414  TIP3      H1             30.3329294280      -24.7857024159        7.9578536648  W2        10629           0.0000000000
     31242     10414  TIP3      H2             30.2246994280      -23.2772224159        8.0261136648  W2        10629           0.0000000000
     31243     10415  TIP3      OH2            31.0673494280      -26.1776424159        6.9515536648  W2        10630           0.0000000000
     31244     10415  TIP3      H1             30.8098294280      -26.8676324159        6.3401436648  W2        10630           0.0000000000
     31245     10415  TIP3      H2             31.1384294280      -26.6205224159        7.7971436648  W2        10630           0.0000000000
     31246     10416  TIP3      OH2            32.7533694280      -27.6109724159       15.4289036648  W2        10631           0.0000000000
     31247     10416  TIP3      H1             32.8929994280      -28.2027224159       14.6896036648  W2        10631           0.0000000000
     31248     10416  TIP3      H2             32.9206494280      -26.7383824159       15.0727836648  W2        10631           0.0000000000
     31249     10417  TIP3      OH2            27.2259094280      -30.6490224159        5.2015036648  W2        10632           0.0000000000
     31250     10417  TIP3      H1             26.5144594280      -30.1140524159        4.8495536648  W2        10632           0.0000000000
     31251     10417  TIP3      H2             27.9168694280      -30.5938124159        4.5413936648  W2        10632           0.0000000000
     31252     10418  TIP3      OH2            27.2798294280      -32.1915924159        2.2400036648  W2        10633           0.0000000000
     31253     10418  TIP3      H1             27.9808194280      -32.1689024159        2.8914036648  W2        10633           0.0000000000
     31254     10418  TIP3      H2             27.5821194280      -32.8196224159        1.5839336648  W2        10633           0.0000000000
     31255     10419  TIP3      OH2            34.5952994280      -31.2711724159       13.4949436648  W2        10634           0.0000000000
     31256     10419  TIP3      H1             33.9427094280      -30.5766124159       13.5840336648  W2        10634           0.0000000000
     31257     10419  TIP3      H2             35.0603294280      -31.0610824159       12.6851036648  W2        10634           0.0000000000
     31258     10420  TIP3      OH2            30.6316794280      -30.4396924159        6.1530936648  W2        10635           0.0000000000
     31259     10420  TIP3      H1             29.8997794280      -30.2113224159        6.7261536648  W2        10635           0.0000000000
     31260     10420  TIP3      H2             31.0788994280      -31.1534224159        6.6078436648  W2        10635           0.0000000000
     31261     10421  TIP3      OH2            30.5290294280      -32.2654324159       15.2207936648  W2        10636           0.0000000000
     31262     10421  TIP3      H1             30.6089394280      -31.5019924159       15.7926436648  W2        10636           0.0000000000
     31263     10421  TIP3      H2             29.9277994280      -31.9861924159       14.5303036648  W2        10636           0.0000000000
     31264     10422  TIP3      OH2            22.2770494280      -29.8090724159        8.0355936648  W2        10637           0.0000000000
     31265     10422  TIP3      H1             21.9465694280      -30.1797324159        7.2172936648  W2        10637           0.0000000000
     31266     10422  TIP3      H2             22.8654594280      -30.4796724159        8.3824236648  W2        10637           0.0000000000
     31267     10423  TIP3      OH2            23.6437994280      -26.3810124159       10.7168136648  W2        10638           0.0000000000
     31268     10423  TIP3      H1             23.5489294280      -26.9597024159        9.9602736648  W2        10638           0.0000000000
     31269     10423  TIP3      H2             24.3731594280      -26.7524424159       11.2130936648  W2        10638           0.0000000000
     31270     10424  TIP3      OH2            22.6435994280      -31.0405124159       11.6690936648  W2        10639           0.0000000000
     31271     10424  TIP3      H1             23.2088494280      -30.9190924159       10.9062136648  W2        10639           0.0000000000
     31272     10424  TIP3      H2             22.9624894280      -30.4030124159       12.3079436648  W2        10639           0.0000000000
     31273     10425  TIP3      OH2            28.9528194280      -25.5373224159       12.4031436648  W2        10640           0.0000000000
     31274     10425  TIP3      H1             28.7124794280      -24.8750124159       13.0510636648  W2        10640           0.0000000000
     31275     10425  TIP3      H2             28.7546394280      -26.3718024159       12.8281036648  W2        10640           0.0000000000
     31276     10426  TIP3      OH2            23.5236694280      -26.6412424159       16.3862836648  W2        10641           0.0000000000
     31277     10426  TIP3      H1             23.2124194280      -25.8589224159       16.8416036648  W2        10641           0.0000000000
     31278     10426  TIP3      H2             22.8736894280      -26.7943324159       15.7004836648  W2        10641           0.0000000000
     31279     10427  TIP3      OH2            29.5026294280      -31.2774024159        3.8382136648  W2        10642           0.0000000000
     31280     10427  TIP3      H1             30.0821794280      -31.1273724159        4.5851036648  W2        10642           0.0000000000
     31281     10427  TIP3      H2             29.9166294280      -30.8066624159        3.1148536648  W2        10642           0.0000000000
     31282     10428  TIP3      OH2            20.4436594280      -30.4431324159       15.6148536648  W2        10643           0.0000000000
     31283     10428  TIP3      H1             20.5139794280      -29.7924524159       16.3133536648  W2        10643           0.0000000000
     31284     10428  TIP3      H2             19.5528794280      -30.3403824159       15.2799436648  W2        10643           0.0000000000
     31285     10429  TIP3      OH2            27.2291194280      -24.5405524159        7.2735236648  W2        10644           0.0000000000
     31286     10429  TIP3      H1             27.7028794280      -24.2449224159        8.0509436648  W2        10644           0.0000000000
     31287     10429  TIP3      H2             26.6660494280      -23.8023924159        7.0404836648  W2        10644           0.0000000000
     31288     10430  TIP3      OH2            21.7632594280      -24.5697424159       17.1496636648  W2        10645           0.0000000000
     31289     10430  TIP3      H1             21.7707894280      -24.7057724159       16.2022136648  W2        10645           0.0000000000
     31290     10430  TIP3      H2             20.8472994280      -24.6869324159       17.4016636648  W2        10645           0.0000000000
     31291     10431  TIP3      OH2            33.2014694280      -39.5273624159        3.6511836648  W2        10646           0.0000000000
     31292     10431  TIP3      H1             32.3015394280      -39.3884624159        3.9462436648  W2        10646           0.0000000000
     31293     10431  TIP3      H2             33.4533094280      -38.6959024159        3.2493536648  W2        10646           0.0000000000
     31294     10432  TIP3      OH2            21.2673194280      -30.7396424159        5.6248736648  W2        10647           0.0000000000
     31295     10432  TIP3      H1             20.9754494280      -29.9714724159        5.1340036648  W2        10647           0.0000000000
     31296     10432  TIP3      H2             20.5928394280      -31.3990224159        5.4620136648  W2        10647           0.0000000000
     31297     10433  TIP3      OH2            34.3906094280      -25.1611224159        2.0275736648  W2        10648           0.0000000000
     31298     10433  TIP3      H1             34.4639594280      -24.2221024159        2.1981036648  W2        10648           0.0000000000
     31299     10433  TIP3      H2             35.2961194280      -25.4662624159        1.9713036648  W2        10648           0.0000000000
     31300     10434  TIP3      OH2            17.3603294280      -28.3767224159       14.4398536648  W2        10649           0.0000000000
     31301     10434  TIP3      H1             16.8591694280      -28.4047824159       13.6248236648  W2        10649           0.0000000000
     31302     10434  TIP3      H2             17.3656994280      -29.2824024159       14.7495836648  W2        10649           0.0000000000
     31303     10435  TIP3      OH2            17.1105994280      -25.5963424159       11.3238736648  W2        10650           0.0000000000
     31304     10435  TIP3      H1             18.0566594280      -25.7406424159       11.3048236648  W2        10650           0.0000000000
     31305     10435  TIP3      H2             16.9982294280      -24.8120624159       11.8609936648  W2        10650           0.0000000000
     31306     10436  TIP3      OH2            35.3084494280      -24.9303724159       17.0062436648  W2        10651           0.0000000000
     31307     10436  TIP3      H1             35.2591294280      -25.8855624159       16.9690036648  W2        10651           0.0000000000
     31308     10436  TIP3      H2             34.4816794280      -24.6628424159       17.4076236648  W2        10651           0.0000000000
     31309     10437  TIP3      OH2            26.2868494280      -25.3564524159       15.8823836648  W2        10652           0.0000000000
     31310     10437  TIP3      H1             26.3743094280      -24.5299924159       16.3572936648  W2        10652           0.0000000000
     31311     10437  TIP3      H2             25.4233594280      -25.6860724159       16.1313136648  W2        10652           0.0000000000
     31312     10438  TIP3      OH2            26.7014294280      -21.5840824159        5.6884436648  W2        10653           0.0000000000
     31313     10438  TIP3      H1             26.6260294280      -21.7053624159        4.7419636648  W2        10653           0.0000000000
     31314     10438  TIP3      H2             26.7342994280      -20.6348124159        5.8069036648  W2        10653           0.0000000000
     31315     10439  TIP3      OH2            20.3548094280      -22.7953824159        7.4693436648  W2        10654           0.0000000000
     31316     10439  TIP3      H1             20.5068494280      -23.1433424159        8.3479936648  W2        10654           0.0000000000
     31317     10439  TIP3      H2             19.5038494280      -23.1516524159        7.2140636648  W2        10654           0.0000000000
     31318     10440  TIP3      OH2            29.8030294280      -22.4300624159        2.6906836648  W2        10655           0.0000000000
     31319     10440  TIP3      H1             30.1778694280      -23.1744524159        2.2199436648  W2        10655           0.0000000000
     31320     10440  TIP3      H2             29.8073994280      -22.7000024159        3.6090136648  W2        10655           0.0000000000
     31321     10441  TIP3      OH2            29.4718394280      -22.5043524159        5.4399036648  W2        10656           0.0000000000
     31322     10441  TIP3      H1             28.5368194280      -22.4041624159        5.6186036648  W2        10656           0.0000000000
     31323     10441  TIP3      H2             29.7520294280      -23.2137524159        6.0182236648  W2        10656           0.0000000000
     31324     10442  TIP3      OH2            32.4604294280      -33.4371224159       17.4864636648  W2        10657           0.0000000000
     31325     10442  TIP3      H1             32.0531094280      -32.9565624159       16.7657936648  W2        10657           0.0000000000
     31326     10442  TIP3      H2             32.5009994280      -34.3425224159       17.1785436648  W2        10657           0.0000000000
     31327     10443  TIP3      OH2            19.6093794280      -27.0531824159       15.4831336648  W2        10658           0.0000000000
     31328     10443  TIP3      H1             19.8255094280      -27.4146224159       16.3427136648  W2        10658           0.0000000000
     31329     10443  TIP3      H2             18.7538494280      -27.4278024159       15.2734836648  W2        10658           0.0000000000
     31330     10444  TIP3      OH2            22.2281794280      -38.5831324159       11.4785536648  W2        10659           0.0000000000
     31331     10444  TIP3      H1             21.3665494280      -38.6703124159       11.0708436648  W2        10659           0.0000000000
     31332     10444  TIP3      H2             22.2057494280      -37.7271224159       11.9063136648  W2        10659           0.0000000000
     31333     10445  TIP3      OH2            26.8909594280      -38.8610924159       14.8532536648  W2        10660           0.0000000000
     31334     10445  TIP3      H1             27.3112694280      -39.2763824159       15.6063136648  W2        10660           0.0000000000
     31335     10445  TIP3      H2             25.9579194280      -39.0397624159       14.9704536648  W2        10660           0.0000000000
     31336     10446  TIP3      OH2            30.2174494280      -35.1055724159       15.7067036648  W2        10661           0.0000000000
     31337     10446  TIP3      H1             29.7033994280      -35.2313524159       16.5043036648  W2        10661           0.0000000000
     31338     10446  TIP3      H2             30.0619194280      -34.1932624159       15.4623236648  W2        10661           0.0000000000
     31339     10447  TIP3      OH2            30.9799394280      -30.2445724159        1.4680036648  W2        10662           0.0000000000
     31340     10447  TIP3      H1             31.0220194280      -30.4671824159        0.5380036648  W2        10662           0.0000000000
     31341     10447  TIP3      H2             31.8291494280      -29.8458624159        1.6579936648  W2        10662           0.0000000000
     31342     10448  TIP3      OH2            26.5526894280      -36.3687524159        2.1383336648  W2        10663           0.0000000000
     31343     10448  TIP3      H1             26.2991694280      -36.3495924159        3.0611436648  W2        10663           0.0000000000
     31344     10448  TIP3      H2             26.2958994280      -37.2402124159        1.8369536648  W2        10663           0.0000000000
     31345     10449  TIP3      OH2            22.3191894280      -33.6176824159       12.5735736648  W2        10664           0.0000000000
     31346     10449  TIP3      H1             21.6773994280      -33.6579524159       13.2825836648  W2        10664           0.0000000000
     31347     10449  TIP3      H2             22.3563894280      -32.6912124159       12.3358736648  W2        10664           0.0000000000
     31348     10450  TIP3      OH2            22.3160994280      -33.3966724159        7.4855736648  W2        10665           0.0000000000
     31349     10450  TIP3      H1             21.4233894280      -33.7370624159        7.4269536648  W2        10665           0.0000000000
     31350     10450  TIP3      H2             22.7667594280      -33.7735824159        6.7298936648  W2        10665           0.0000000000
     31351     10451  TIP3      OH2            27.8516494280      -32.9806424159        6.3026536648  W2        10666           0.0000000000
     31352     10451  TIP3      H1             27.4426794280      -32.1657824159        6.0111336648  W2        10666           0.0000000000
     31353     10451  TIP3      H2             28.5722694280      -33.1206324159        5.6883636648  W2        10666           0.0000000000
     31354     10452  TIP3      OH2            26.9538094280      -32.8050024159       17.7907236648  W2        10667           0.0000000000
     31355     10452  TIP3      H1             26.3911894280      -33.5098424159       18.1115036648  W2        10667           0.0000000000
     31356     10452  TIP3      H2             27.7801494280      -32.9258124159       18.2584836648  W2        10667           0.0000000000
     31357     10453  TIP3      OH2            28.8564194280      -33.5346024159        9.1166236648  W2        10668           0.0000000000
     31358     10453  TIP3      H1             28.6608694280      -32.9289224159        8.4016836648  W2        10668           0.0000000000
     31359     10453  TIP3      H2             29.0376794280      -34.3680824159        8.6822536648  W2        10668           0.0000000000
     31360     10454  TIP3      OH2            20.0692394280      -33.2973324159       14.4407736648  W2        10669           0.0000000000
     31361     10454  TIP3      H1             20.0311794280      -32.8971724159       15.3094836648  W2        10669           0.0000000000
     31362     10454  TIP3      H2             19.5783494280      -34.1140924159       14.5310636648  W2        10669           0.0000000000
     31363     10455  TIP3      OH2            23.4349794280      -35.9231024159        1.2393736648  W2        10670           0.0000000000
     31364     10455  TIP3      H1             23.0040494280      -36.3680924159        1.9691136648  W2        10670           0.0000000000
     31365     10455  TIP3      H2             22.7168494280      -35.5514724159        0.7271236648  W2        10670           0.0000000000
     31366     10456  TIP3      OH2            16.6773194280      -36.1811524159        8.2912436648  W2        10671           0.0000000000
     31367     10456  TIP3      H1             17.3080894280      -36.2099424159        9.0106336648  W2        10671           0.0000000000
     31368     10456  TIP3      H2             17.1267494280      -36.6062824159        7.5608336648  W2        10671           0.0000000000
     31369     10457  TIP3      OH2            17.9515294280      -35.4349524159        3.7152836648  W2        10672           0.0000000000
     31370     10457  TIP3      H1             18.4256994280      -34.8439624159        3.1303736648  W2        10672           0.0000000000
     31371     10457  TIP3      H2             17.2341694280      -34.9046624159        4.0622936648  W2        10672           0.0000000000
     31372     10458  TIP3      OH2            28.1203394280      -31.8964724159       13.7878636648  W2        10673           0.0000000000
     31373     10458  TIP3      H1             28.4438194280      -32.5275024159       13.1449136648  W2        10673           0.0000000000
     31374     10458  TIP3      H2             27.6802694280      -32.4312524159       14.4486036648  W2        10673           0.0000000000
     31375     10459  TIP3      OH2            24.8976294280      -35.9689224159        8.5719836648  W2        10674           0.0000000000
     31376     10459  TIP3      H1             23.9867394280      -35.9122424159        8.8605836648  W2        10674           0.0000000000
     31377     10459  TIP3      H2             25.4029194280      -36.0293724159        9.3827036648  W2        10674           0.0000000000
     31378     10460  TIP3      OH2            19.7259694280      -34.3402924159        7.3987436648  W2        10675           0.0000000000
     31379     10460  TIP3      H1             18.8367694280      -34.2407424159        7.0587036648  W2        10675           0.0000000000
     31380     10460  TIP3      H2             20.0224594280      -35.1819924159        7.0525336648  W2        10675           0.0000000000
     31381     10461  TIP3      OH2            23.3791494280      -34.3400324159        5.0552036648  W2        10676           0.0000000000
     31382     10461  TIP3      H1             24.3106994280      -34.2110324159        5.2335136648  W2        10676           0.0000000000
     31383     10461  TIP3      H2             23.1641794280      -33.6706024159        4.4056736648  W2        10676           0.0000000000
     31384     10462  TIP3      OH2            29.3028194280      -36.7342924159       11.8361636648  W2        10677           0.0000000000
     31385     10462  TIP3      H1             28.6259794280      -36.6029824159       12.5001336648  W2        10677           0.0000000000
     31386     10462  TIP3      H2             28.8173094280      -36.8893424159       11.0259336648  W2        10677           0.0000000000
     31387     10463  TIP3      OH2            22.0531694280      -33.1458124159        2.6218136648  W2        10678           0.0000000000
     31388     10463  TIP3      H1             21.5106794280      -33.5254324159        1.9305736648  W2        10678           0.0000000000
     31389     10463  TIP3      H2             22.8866594280      -32.9513424159        2.1932236648  W2        10678           0.0000000000
     31390     10464  TIP3      OH2            20.1883094280      -28.5886224159       17.7209736648  W2        10680           0.0000000000
     31391     10464  TIP3      H1             20.9205494280      -28.3340324159       18.2824236648  W2        10680           0.0000000000
     31392     10464  TIP3      H2             19.4081794280      -28.3840824159       18.2365136648  W2        10680           0.0000000000
     31393     10465  TIP3      OH2            26.2175994280      -33.1816224159       10.4589436648  W2        10681           0.0000000000
     31394     10465  TIP3      H1             26.7819394280      -33.7279624159        9.9119036648  W2        10681           0.0000000000
     31395     10465  TIP3      H2             26.0699394280      -33.7034324159       11.2477036648  W2        10681           0.0000000000
     31396     10466  TIP3      OH2            21.2195694280      -37.0450124159        6.8774236648  W2        10682           0.0000000000
     31397     10466  TIP3      H1             20.9025194280      -37.9474824159        6.8419636648  W2        10682           0.0000000000
     31398     10466  TIP3      H2             22.0009794280      -37.0432724159        6.3245836648  W2        10682           0.0000000000
     31399     10467  TIP3      OH2            24.8441894280      -34.7930124159       12.8729836648  W2        10683           0.0000000000
     31400     10467  TIP3      H1             24.0087194280      -34.3390624159       12.9832236648  W2        10683           0.0000000000
     31401     10467  TIP3      H2             25.3682494280      -34.5171624159       13.6249736648  W2        10683           0.0000000000
     31402     10468  TIP3      OH2            25.3884494280      -28.5802424159        4.5576236648  W2        10684           0.0000000000
     31403     10468  TIP3      H1             24.6435494280      -29.0877124159        4.2354136648  W2        10684           0.0000000000
     31404     10468  TIP3      H2             25.2541694280      -28.5314424159        5.5041036648  W2        10684           0.0000000000
     31405     10469  TIP3      OH2            32.5383394280      -29.4474224159       13.3443836648  W2        10685           0.0000000000
     31406     10469  TIP3      H1             33.1802194280      -28.9907924159       12.8006036648  W2        10685           0.0000000000
     31407     10469  TIP3      H2             31.7080294280      -29.3341824159       12.8817936648  W2        10685           0.0000000000
     31408     10470  TIP3      OH2            29.2861294280      -35.7662524159        2.7568836648  W2        10686           0.0000000000
     31409     10470  TIP3      H1             28.3475494280      -35.6546924159        2.6057636648  W2        10686           0.0000000000
     31410     10470  TIP3      H2             29.5833394280      -34.9095624159        3.0634536648  W2        10686           0.0000000000
     31411     10471  TIP3      OH2            26.9076594280      -28.3959124159       15.7945336648  W2        10687           0.0000000000
     31412     10471  TIP3      H1             26.5622694280      -28.7776724159       16.6014936648  W2        10687           0.0000000000
     31413     10471  TIP3      H2             26.7076694280      -27.4625524159       15.8658236648  W2        10687           0.0000000000
     31414     10472  TIP3      OH2            30.0044794280      -33.8989824159        4.4176236648  W2        10688           0.0000000000
     31415     10472  TIP3      H1             30.8963794280      -34.0364824159        4.7367436648  W2        10688           0.0000000000
     31416     10472  TIP3      H2             30.0608394280      -33.1083724159        3.8809736648  W2        10688           0.0000000000
     31417     10473  TIP3      OH2            20.5132794280      -29.2852424159       10.3274136648  W2        10689           0.0000000000
     31418     10473  TIP3      H1             21.2579994280      -29.2876724159        9.7260636648  W2        10689           0.0000000000
     31419     10473  TIP3      H2             20.5909394280      -30.1088624159       10.8089236648  W2        10689           0.0000000000
     31420     10474  TIP3      OH2            27.5138594280      -27.1218124159        3.5830836648  W2        10690           0.0000000000
     31421     10474  TIP3      H1             27.2186994280      -26.2950224159        3.9645636648  W2        10690           0.0000000000
     31422     10474  TIP3      H2             26.8108594280      -27.7411224159        3.7792236648  W2        10690           0.0000000000
     31423     10475  TIP3      OH2            17.5212494280      -30.8245524159       15.6422636648  W2        10691           0.0000000000
     31424     10475  TIP3      H1             17.7441094280      -31.2425924159       16.4740136648  W2        10691           0.0000000000
     31425     10475  TIP3      H2             16.9192594280      -31.4370524159       15.2195436648  W2        10691           0.0000000000
     31426     10476  TIP3      OH2            29.1580194280      -25.9343624159       15.7450336648  W2        10693           0.0000000000
     31427     10476  TIP3      H1             28.2574494280      -25.7511024159       15.4774236648  W2        10693           0.0000000000
     31428     10476  TIP3      H2             29.1921294280      -25.6754324159       16.6659136648  W2        10693           0.0000000000
     31429     10477  TIP3      OH2            34.8893494280      -33.6895724159        4.1122936648  W2        10694           0.0000000000
     31430     10477  TIP3      H1             34.3349794280      -34.0857724159        3.4400436648  W2        10694           0.0000000000
     31431     10477  TIP3      H2             34.9897094280      -32.7790524159        3.8346236648  W2        10694           0.0000000000
     31432     10478  TIP3      OH2            34.8525494280      -27.8894024159       16.9494436648  W2        10695           0.0000000000
     31433     10478  TIP3      H1             34.0013994280      -27.6510224159       16.5820836648  W2        10695           0.0000000000
     31434     10478  TIP3      H2             35.4428894280      -27.9060824159       16.1961536648  W2        10695           0.0000000000
     31435     10479  TIP3      OH2            33.1845194280      -24.9035324159        4.5775036648  W2        10696           0.0000000000
     31436     10479  TIP3      H1             32.8116294280      -25.7291524159        4.8865636648  W2        10696           0.0000000000
     31437     10479  TIP3      H2             33.4618694280      -25.0865924159        3.6798436648  W2        10696           0.0000000000
     31438     10480  TIP3      OH2            30.3449094280      -30.0955824159       11.5986936648  W2        10697           0.0000000000
     31439     10480  TIP3      H1             29.4165994280      -30.3273924159       11.5716236648  W2        10697           0.0000000000
     31440     10480  TIP3      H2             30.7960194280      -30.8726024159       11.2685736648  W2        10697           0.0000000000
     31441     10481  TIP3      OH2            22.8882194280      -25.7674224159        7.7315636648  W2        10698           0.0000000000
     31442     10481  TIP3      H1             23.4154394280      -24.9939824159        7.5314436648  W2        10698           0.0000000000
     31443     10481  TIP3      H2             22.0080694280      -25.5425024159        7.4299636648  W2        10698           0.0000000000
     31444     10482  TIP3      OH2            18.6429894280      -30.9050124159        2.3188036648  W2        10699           0.0000000000
     31445     10482  TIP3      H1             19.2589794280      -30.2782924159        2.6982836648  W2        10699           0.0000000000
     31446     10482  TIP3      H2             17.7812494280      -30.5890324159        2.5904536648  W2        10699           0.0000000000
     31447     10483  TIP3      OH2            24.3154494280      -28.1044324159        7.3079936648  W2        10700           0.0000000000
     31448     10483  TIP3      H1             24.0744494280      -27.1789924159        7.3495236648  W2        10700           0.0000000000
     31449     10483  TIP3      H2             23.5748094280      -28.5633024159        7.7043836648  W2        10700           0.0000000000
     31450     10484  TIP3      OH2            24.8301094280      -23.9550724159       13.6231036648  W2        10701           0.0000000000
     31451     10484  TIP3      H1             25.1925794280      -23.1005124159       13.3895436648  W2        10701           0.0000000000
     31452     10484  TIP3      H2             25.3616294280      -24.2469124159       14.3637336648  W2        10701           0.0000000000
     31453     10485  TIP3      OH2            22.9985294280      -23.0826724159        6.8532136648  W2        10702           0.0000000000
     31454     10485  TIP3      H1             22.0485794280      -22.9769324159        6.9045436648  W2        10702           0.0000000000
     31455     10485  TIP3      H2             23.3503394280      -22.2619324159        7.1979636648  W2        10702           0.0000000000
     31456     10486  TIP3      OH2            28.3741894280      -27.8560024159       13.3236636648  W2        10703           0.0000000000
     31457     10486  TIP3      H1             27.9483194280      -28.0838324159       14.1500636648  W2        10703           0.0000000000
     31458     10486  TIP3      H2             28.9547694280      -28.5948224159       13.1411936648  W2        10703           0.0000000000
     31459     10487  TIP3      OH2            30.5770794280      -26.9269524159        2.3975636648  W2        10704           0.0000000000
     31460     10487  TIP3      H1             30.9303894280      -27.3069724159        3.2019136648  W2        10704           0.0000000000
     31461     10487  TIP3      H2             29.6284294280      -27.0204724159        2.4844936648  W2        10704           0.0000000000
     31462     10488  TIP3      OH2            31.0326094280      -23.3040524159       15.7931436648  W2        10705           0.0000000000
     31463     10488  TIP3      H1             30.4309294280      -23.8597624159       15.2977736648  W2        10705           0.0000000000
     31464     10488  TIP3      H2             31.3139794280      -22.6370724159       15.1668836648  W2        10705           0.0000000000
     31465     10489  TIP3      OH2            35.0805194280      -22.4477024159        2.5985836648  W2        10706           0.0000000000
     31466     10489  TIP3      H1             35.8243094280      -21.8616524159        2.4587436648  W2        10706           0.0000000000
     31467     10489  TIP3      H2             34.3863294280      -21.8791224159        2.9318236648  W2        10706           0.0000000000
     31468     10490  TIP3      OH2            19.1551994280      -36.0712824159       15.2004036648  W2        10707           0.0000000000
     31469     10490  TIP3      H1             18.2624294280      -35.7327424159       15.1328036648  W2        10707           0.0000000000
     31470     10490  TIP3      H2             19.0564794280      -36.9266724159       15.6184836648  W2        10707           0.0000000000
     31471     10491  TIP3      OH2            31.4430094280      -28.2547524159        4.6243536648  W2        10708           0.0000000000
     31472     10491  TIP3      H1             31.1657694280      -28.9828224159        5.1804636648  W2        10708           0.0000000000
     31473     10491  TIP3      H2             32.3703094280      -28.1355524159        4.8296136648  W2        10708           0.0000000000
     31474     10492  TIP3      OH2            18.8063994280      -24.2668424159       13.6353436648  W2        10709           0.0000000000
     31475     10492  TIP3      H1             19.0234294280      -25.1986024159       13.6043136648  W2        10709           0.0000000000
     31476     10492  TIP3      H2             19.0527494280      -23.9923424159       14.5186236648  W2        10709           0.0000000000
     31477     10493  TIP3      OH2            24.6678594280      -25.8153424159        0.8445636648  W2        10710           0.0000000000
     31478     10493  TIP3      H1             24.9068394280      -26.5635324159        0.2974536648  W2        10710           0.0000000000
     31479     10493  TIP3      H2             24.3989894280      -26.2031724159        1.6773436648  W2        10710           0.0000000000
     31480     10494  TIP3      OH2            23.6049194280      -26.2449624159        3.3008236648  W2        10711           0.0000000000
     31481     10494  TIP3      H1             23.7517194280      -26.7649824159        4.0909136648  W2        10711           0.0000000000
     31482     10494  TIP3      H2             23.6020894280      -25.3382024159        3.6074136648  W2        10711           0.0000000000
     31483     10495  TIP3      OH2            20.0580294280      -28.9926324159        3.8113636648  W2        10712           0.0000000000
     31484     10495  TIP3      H1             19.3719594280      -28.6403824159        4.3783336648  W2        10712           0.0000000000
     31485     10495  TIP3      H2             20.5808194280      -28.2296724159        3.5647936648  W2        10712           0.0000000000
     31486     10496  TIP3      OH2            27.8895394280      -36.3302524159       14.0902636648  W2        10713           0.0000000000
     31487     10496  TIP3      H1             28.5883294280      -36.2563824159       14.7402336648  W2        10713           0.0000000000
     31488     10496  TIP3      H2             27.5086794280      -37.1947524159       14.2445536648  W2        10713           0.0000000000
     31489     10497  TIP3      OH2            28.6740294280      -36.6780824159        5.1874936648  W2        10714           0.0000000000
     31490     10497  TIP3      H1             28.8938594280      -36.2065424159        4.3840336648  W2        10714           0.0000000000
     31491     10497  TIP3      H2             29.2324294280      -36.2838224159        5.8575536648  W2        10714           0.0000000000
     31492     10498  TIP3      OH2            26.3426394280      -24.5476024159        4.0502436648  W2        10715           0.0000000000
     31493     10498  TIP3      H1             25.5262494280      -24.0506324159        4.1026736648  W2        10715           0.0000000000
     31494     10498  TIP3      H2             26.8722694280      -24.0722524159        3.4101236648  W2        10715           0.0000000000
     31495     10499  TIP3      OH2            25.8740194280      -34.9502024159        6.0223336648  W2        10716           0.0000000000
     31496     10499  TIP3      H1             26.6862794280      -34.4458824159        6.0685036648  W2        10716           0.0000000000
     31497     10499  TIP3      H2             25.6293194280      -35.0952324159        6.9362936648  W2        10716           0.0000000000
     31498     10500  TIP3      OH2            26.4096594280      -33.9639324159       15.2069936648  W2        10717           0.0000000000
     31499     10500  TIP3      H1             26.5286894280      -33.3903924159       15.9640336648  W2        10717           0.0000000000
     31500     10500  TIP3      H2             27.0651194280      -34.6519924159       15.3217736648  W2        10717           0.0000000000
     31501     10501  TIP3      OH2            26.7576894280      -37.8689024159        6.9604436648  W2        10718           0.0000000000
     31502     10501  TIP3      H1             26.4110394280      -37.2518424159        7.6048736648  W2        10718           0.0000000000
     31503     10501  TIP3      H2             27.4163794280      -37.3683324159        6.4789936648  W2        10718           0.0000000000
     31504     10502  TIP3      OH2            23.6809494280      -23.5038824159        4.0319336648  W2        10719           0.0000000000
     31505     10502  TIP3      H1             23.8418194280      -22.7041324159        3.5311936648  W2        10719           0.0000000000
     31506     10502  TIP3      H2             23.4837294280      -23.1972824159        4.9169936648  W2        10719           0.0000000000
     31507     10503  TIP3      OH2            22.4153894280      -36.8059624159        3.6476936648  W2        10720           0.0000000000
     31508     10503  TIP3      H1             22.3318694280      -35.9176524159        3.9943336648  W2        10720           0.0000000000
     31509     10503  TIP3      H2             23.3054194280      -37.0712924159        3.8793736648  W2        10720           0.0000000000
     31510     10504  TIP3      OH2            32.6142394280      -36.0569024159       16.0419636648  W2        10721           0.0000000000
     31511     10504  TIP3      H1             31.6978194280      -35.7947324159       15.9543336648  W2        10721           0.0000000000
     31512     10504  TIP3      H2             32.9497394280      -36.0600024159       15.1454936648  W2        10721           0.0000000000
     31513     10505  TIP3      OH2            31.2163394280      -32.3068024159       10.1376936648  W2        10722           0.0000000000
     31514     10505  TIP3      H1             30.4187794280      -32.7217824159        9.8091936648  W2        10722           0.0000000000
     31515     10505  TIP3      H2             31.6614494280      -32.9974324159       10.6287436648  W2        10722           0.0000000000
     31516     10506  TIP3      OH2            20.6739194280      -26.3787424159        2.7081436648  W2        10723           0.0000000000
     31517     10506  TIP3      H1             21.2660694280      -25.6792624159        2.9843836648  W2        10723           0.0000000000
     31518     10506  TIP3      H2             21.1332194280      -26.8117924159        1.9886036648  W2        10723           0.0000000000
     31519     10507  TIP3      OH2            18.9898394280      -33.7144424159        1.8240836648  W2        10724           0.0000000000
     31520     10507  TIP3      H1             18.9450994280      -32.7751324159        2.0027836648  W2        10724           0.0000000000
     31521     10507  TIP3      H2             18.1021594280      -33.9499524159        1.5542936648  W2        10724           0.0000000000
     31522     10508  TIP3      OH2            32.3027994280      -23.0505524159       11.7600436648  W2        10725           0.0000000000
     31523     10508  TIP3      H1             32.1472294280      -22.3721124159       11.1029736648  W2        10725           0.0000000000
     31524     10508  TIP3      H2             33.2354394280      -22.9786224159       11.9631036648  W2        10725           0.0000000000
     31525     10509  TIP3      OH2            19.7980394280      -38.9327824159       10.4971836648  W2        10726           0.0000000000
     31526     10509  TIP3      H1             19.5690194280      -38.8735324159        9.5696836648  W2        10726           0.0000000000
     31527     10509  TIP3      H2             19.3553794280      -39.7242324159       10.8035936648  W2        10726           0.0000000000
     31528     10510  TIP3      OH2            18.7283694280      -24.9920724159        6.6577636648  W2        10727           0.0000000000
     31529     10510  TIP3      H1             17.8962294280      -24.5198024159        6.6849036648  W2        10727           0.0000000000
     31530     10510  TIP3      H2             19.2741994280      -24.4823124159        6.0590736648  W2        10727           0.0000000000
     31531     10511  TIP3      OH2            26.7060394280      -23.9522024159        0.9831636648  W2        10730           0.0000000000
     31532     10511  TIP3      H1             26.0621394280      -24.5833424159        1.3045336648  W2        10730           0.0000000000
     31533     10511  TIP3      H2             27.4678694280      -24.4834024159        0.7515136648  W2        10730           0.0000000000
     31534     10512  TIP3      OH2            31.3103294280      -24.1352124159        1.2169636648  W2        10732           0.0000000000
     31535     10512  TIP3      H1             31.5933694280      -24.9296924159        1.6696536648  W2        10732           0.0000000000
     31536     10512  TIP3      H2             32.0501194280      -23.9021124159        0.6560736648  W2        10732           0.0000000000
     31537     10513  TIP3      OH2            22.2650594280      -28.2257224159        1.0744536648  W2        10734           0.0000000000
     31538     10513  TIP3      H1             22.3294694280      -29.0197624159        1.6050936648  W2        10734           0.0000000000
     31539     10513  TIP3      H2             22.9179794280      -28.3444424159        0.3846536648  W2        10734           0.0000000000
     31540     10514  TIP3      OH2            27.6173994280      -27.1785524159        0.8102536648  W2        10736           0.0000000000
     31541     10514  TIP3      H1             27.3488094280      -26.9983424159        1.7111436648  W2        10736           0.0000000000
     31542     10514  TIP3      H2             27.4109594280      -28.1039324159        0.6788336648  W2        10736           0.0000000000
     31543     10515  TIP3      OH2            30.3138194280      -28.6837524159       15.7578636648  W2        10737           0.0000000000
     31544     10515  TIP3      H1             31.0592994280      -28.0953824159       15.6382636648  W2        10737           0.0000000000
     31545     10515  TIP3      H2             29.5564994280      -28.1017824159       15.8211736648  W2        10737           0.0000000000
     31546     10516  TIP3      OH2            23.4144394280      -30.2531024159        3.3802536648  W2        10739           0.0000000000
     31547     10516  TIP3      H1             22.9546394280      -30.7372724159        4.0661036648  W2        10739           0.0000000000
     31548     10516  TIP3      H2             23.6693094280      -30.9215624159        2.7443036648  W2        10739           0.0000000000
     31549     10517  TIP3      OH2            22.7033694280      -32.3603924159       15.7362136648  W2        10740           0.0000000000
     31550     10517  TIP3      H1             22.0849794280      -31.6857324159       16.0166836648  W2        10740           0.0000000000
     31551     10517  TIP3      H2             23.0474894280      -32.0390024159       14.9028336648  W2        10740           0.0000000000
     31552     10518  TIP3      OH2            24.4854794280      -32.0099224159        1.6425736648  W2        10741           0.0000000000
     31553     10518  TIP3      H1             24.3049794280      -32.1648024159        0.7154036648  W2        10741           0.0000000000
     31554     10518  TIP3      H2             25.4355294280      -31.9020524159        1.6873636648  W2        10741           0.0000000000
     31555     10519  TIP3      OH2            33.8753094280      -29.6555024159        1.0883836648  W2        10743           0.0000000000
     31556     10519  TIP3      H1             33.6017894280      -30.0799524159        0.2752136648  W2        10743           0.0000000000
     31557     10519  TIP3      H2             33.9147194280      -28.7240524159        0.8714236648  W2        10743           0.0000000000
     31558     10520  TIP3      OH2            23.0427394280      -35.0053124159       16.8185236648  W2        10744           0.0000000000
     31559     10520  TIP3      H1             23.1928294280      -35.7341824159       16.2164936648  W2        10744           0.0000000000
     31560     10520  TIP3      H2             23.0449794280      -34.2281424159       16.2597436648  W2        10744           0.0000000000
     31561     10521  TIP3      OH2            23.4553094280      -36.6357324159       14.3112636648  W2        10745           0.0000000000
     31562     10521  TIP3      H1             23.9910594280      -36.1840624159       13.6591936648  W2        10745           0.0000000000
     31563     10521  TIP3      H2             22.6032694280      -36.7437524159       13.8886736648  W2        10745           0.0000000000
     31564     10522  TIP3      OH2            25.0371494280      -31.1961124159       14.5507836648  W2        10746           0.0000000000
     31565     10522  TIP3      H1             25.7876294280      -31.3523624159       13.9775636648  W2        10746           0.0000000000
     31566     10522  TIP3      H2             24.6979794280      -30.3444524159       14.2753336648  W2        10746           0.0000000000
     31567     10523  TIP3      OH2            30.7694894280      -30.5924124159       17.6565836648  W2        10748           0.0000000000
     31568     10523  TIP3      H1             30.4879894280      -29.8829524159       17.0789636648  W2        10748           0.0000000000
     31569     10523  TIP3      H2             31.7119194280      -30.6651124159       17.5057036648  W2        10748           0.0000000000
     31570     10524  TIP3      OH2            24.2608594280      -39.1791624159       14.7426236648  W2        10750           0.0000000000
     31571     10524  TIP3      H1             24.1628194280      -38.2328424159       14.6372436648  W2        10750           0.0000000000
     31572     10524  TIP3      H2             23.5184794280      -39.5517824159       14.2669736648  W2        10750           0.0000000000
     31573     10525  TIP3      OH2            28.2405694280      -35.7302724159       17.3818136648  W2        10752           0.0000000000
     31574     10525  TIP3      H1             27.2931094280      -35.6983024159       17.5141436648  W2        10752           0.0000000000
     31575     10525  TIP3      H2             28.5532394280      -36.3555624159       18.0356336648  W2        10752           0.0000000000
     31576     10526  TIP3      OH2            24.4826694280      -39.8854224159       17.4139036648  W2        10755           0.0000000000
     31577     10526  TIP3      H1             25.1945094280      -40.5252024159       17.3998136648  W2        10755           0.0000000000
     31578     10526  TIP3      H2             24.3817094280      -39.6185924159       16.5002136648  W2        10755           0.0000000000
     31579     10527  TIP3      OH2            24.3826494280      -21.3195524159        2.6439336648  W2        10757           0.0000000000
     31580     10527  TIP3      H1             25.3157194280      -21.1616824159        2.7877736648  W2        10757           0.0000000000
     31581     10527  TIP3      H2             24.1185294280      -20.6442524159        2.0190836648  W2        10757           0.0000000000
     31582     10528  TIP3      OH2            17.9511394280      -26.6831724159        2.1267436648  W2        10758           0.0000000000
     31583     10528  TIP3      H1             18.8650594280      -26.6042824159        2.4001336648  W2        10758           0.0000000000
     31584     10528  TIP3      H2             17.9584494280      -27.3702124159        1.4603036648  W2        10758           0.0000000000
     31585     10529  TIP3      OH2            16.6001994280      -21.2903224159        7.2041336648  W2        10759           0.0000000000
     31586     10529  TIP3      H1             15.9529094280      -21.7521524159        6.6712536648  W2        10759           0.0000000000
     31587     10529  TIP3      H2             16.9546594280      -21.9619924159        7.7867536648  W2        10759           0.0000000000
     31588     10530  TIP3      OH2            17.4701194280      -23.2096224159        9.0087536648  W2        10760           0.0000000000
     31589     10530  TIP3      H1             17.1357994280      -24.0898924159        9.1807736648  W2        10760           0.0000000000
     31590     10530  TIP3      H2             17.6923594280      -22.8641224159        9.8733136648  W2        10760           0.0000000000
     31591     10531  TIP3      OH2            35.0185994280      -22.3999824159       11.9892336648  W2        10761           0.0000000000
     31592     10531  TIP3      H1             34.9972694280      -22.2151424159       12.9281736648  W2        10761           0.0000000000
     31593     10531  TIP3      H2             35.7092194280      -21.8315824159       11.6483736648  W2        10761           0.0000000000
     31594     10532  TIP3      OH2            34.5818894280      -22.8328724159       14.9111436648  W2        10762           0.0000000000
     31595     10532  TIP3      H1             34.0947594280      -23.5684624159       14.5398836648  W2        10762           0.0000000000
     31596     10532  TIP3      H2             35.1311594280      -23.2264824159       15.5890836648  W2        10762           0.0000000000
     31597     10533  TIP3      OH2            34.3335894280      -28.7866924159        5.0634236648  W2        10764           0.0000000000
     31598     10533  TIP3      H1             35.1837294280      -28.3656024159        5.1905836648  W2        10764           0.0000000000
     31599     10533  TIP3      H2             34.3390994280      -29.5266824159        5.6705636648  W2        10764           0.0000000000
     31600     10534  TIP3      OH2            34.7281494280      -30.7329524159        6.8869936648  W2        10765           0.0000000000
     31601     10534  TIP3      H1             34.0016094280      -31.2126924159        7.2847536648  W2        10765           0.0000000000
     31602     10534  TIP3      H2             35.3094794280      -30.5274824159        7.6191536648  W2        10765           0.0000000000
     31603     10535  TIP3      OH2            34.4872694280      -27.9482024159       11.8347536648  W2        10766           0.0000000000
     31604     10535  TIP3      H1             35.3206894280      -28.3262024159       11.5541136648  W2        10766           0.0000000000
     31605     10535  TIP3      H2             34.5992994280      -27.0050824159       11.7156636648  W2        10766           0.0000000000
     31606     10536  TIP3      OH2            32.9734994280      -25.0704524159       14.1415936648  W2        10767           0.0000000000
     31607     10536  TIP3      H1             32.3260294280      -24.7453024159       14.7671136648  W2        10767           0.0000000000
     31608     10536  TIP3      H2             32.4558994280      -25.5106824159       13.4674236648  W2        10767           0.0000000000
     31609     10537  TIP3      OH2            34.9964594280      -30.8321024159        3.2781236648  W2        10768           0.0000000000
     31610     10537  TIP3      H1             34.4745694280      -30.4756924159        2.5592136648  W2        10768           0.0000000000
     31611     10537  TIP3      H2             34.9633794280      -30.1573224159        3.9562136648  W2        10768           0.0000000000
     31612     10538  TIP3      OH2            33.3453594280      -33.5925424159        1.8288336648  W2        10769           0.0000000000
     31613     10538  TIP3      H1             33.4417994280      -32.9258424159        1.1488036648  W2        10769           0.0000000000
     31614     10538  TIP3      H2             33.2053194280      -34.4079124159        1.3473836648  W2        10769           0.0000000000
     31615     10539  TIP3      OH2            32.5148294280      -32.2123024159        7.4498636648  W2        10770           0.0000000000
     31616     10539  TIP3      H1             32.3647094280      -33.1574424159        7.4296436648  W2        10770           0.0000000000
     31617     10539  TIP3      H2             32.1612794280      -31.9311624159        8.2937736648  W2        10770           0.0000000000
     31618     10540  TIP3      OH2            17.5500694280      -30.1340824159       11.4602436648  W2        10771           0.0000000000
     31619     10540  TIP3      H1             17.7343594280      -30.2159124159       10.5245336648  W2        10771           0.0000000000
     31620     10540  TIP3      H2             18.3993594280      -30.2583824159       11.8838836648  W2        10771           0.0000000000
     31621     10541  TIP3      OH2            33.3711194280      -30.2419724159       17.0886936648  W2        10772           0.0000000000
     31622     10541  TIP3      H1             33.9538494280      -30.9767424159       17.2804136648  W2        10772           0.0000000000
     31623     10541  TIP3      H2             33.9350494280      -29.4699424159       17.1352736648  W2        10772           0.0000000000
     31624     10542  TIP3      OH2            34.8678294280      -32.3393924159       17.7732336648  W2        10773           0.0000000000
     31625     10542  TIP3      H1             34.0044994280      -32.7181824159       17.6077036648  W2        10773           0.0000000000
     31626     10542  TIP3      H2             35.4721994280      -33.0779124159       17.6988136648  W2        10773           0.0000000000
     31627     10543  TIP3      OH2            32.5927394280      -36.1845624159        0.9463836648  W2        10774           0.0000000000
     31628     10543  TIP3      H1             33.2033194280      -36.5558824159        1.5832036648  W2        10774           0.0000000000
     31629     10543  TIP3      H2             31.7558894280      -36.6058724159        1.1423836648  W2        10774           0.0000000000
     31630     10544  TIP3      OH2            32.2253094280      -34.6297224159        5.9123736648  W2        10775           0.0000000000
     31631     10544  TIP3      H1             32.5050194280      -35.5366824159        6.0365436648  W2        10775           0.0000000000
     31632     10544  TIP3      H2             32.9844794280      -34.1955724159        5.5232936648  W2        10775           0.0000000000
     31633     10545  TIP3      OH2            32.8371394280      -34.0479824159       11.3482636648  W2        10776           0.0000000000
     31634     10545  TIP3      H1             33.7699394280      -33.8359924159       11.3138636648  W2        10776           0.0000000000
     31635     10545  TIP3      H2             32.6018894280      -33.9467724159       12.2705636648  W2        10776           0.0000000000
     31636     10546  TIP3      OH2            32.8663294280      -33.3114524159       14.1242036648  W2        10777           0.0000000000
     31637     10546  TIP3      H1             32.0234594280      -33.0434124159       14.4901836648  W2        10777           0.0000000000
     31638     10546  TIP3      H2             33.3087594280      -32.4892624159       13.9133136648  W2        10777           0.0000000000
     31639     10547  TIP3      OH2            17.1475494280      -34.8635824159       17.6011236648  W2        10778           0.0000000000
     31640     10547  TIP3      H1             18.0670394280      -34.9857524159       17.8374336648  W2        10778           0.0000000000
     31641     10547  TIP3      H2             16.6979994280      -35.6136124159       17.9904736648  W2        10778           0.0000000000
     31642     10548  TIP3      OH2            32.8387894280      -37.3667924159        5.9605736648  W2        10780           0.0000000000
     31643     10548  TIP3      H1             33.0212894280      -37.8156424159        6.7860736648  W2        10780           0.0000000000
     31644     10548  TIP3      H2             32.2390794280      -37.9513524159        5.4970336648  W2        10780           0.0000000000
     31645     10549  TIP3      OH2            18.3687994280      -36.5514224159       10.4924136648  W2        10781           0.0000000000
     31646     10549  TIP3      H1             18.8139594280      -37.3431724159       10.7943836648  W2        10781           0.0000000000
     31647     10549  TIP3      H2             18.8350994280      -35.8349024159       10.9229736648  W2        10781           0.0000000000
     31648     10550  TIP3      OH2            16.6728294280      -33.5521224159       11.5614336648  W2        10782           0.0000000000
     31649     10550  TIP3      H1             17.1648094280      -33.7730724159       10.7706336648  W2        10782           0.0000000000
     31650     10550  TIP3      H2             17.0349194280      -32.7117824159       11.8423836648  W2        10782           0.0000000000
     31651     10551  TIP3      OH2            34.7054094280      -37.2989824159        2.4886036648  W2        10784           0.0000000000
     31652     10551  TIP3      H1             35.1176694280      -38.0204124159        2.0134036648  W2        10784           0.0000000000
     31653     10551  TIP3      H2             35.3870594280      -36.6295224159        2.5470336648  W2        10784           0.0000000000
     31654     10552  TIP3      OH2            16.9864794280      -37.2942124159        5.6156736648  W2        10785           0.0000000000
     31655     10552  TIP3      H1             16.0613194280      -37.0855524159        5.4862236648  W2        10785           0.0000000000
     31656     10552  TIP3      H2             17.4404694280      -36.8101324159        4.9259036648  W2        10785           0.0000000000
     31657     10553  TIP3      OH2            31.7571994280      -22.3100424159        7.5614136648  W2        10786           0.0000000000
     31658     10553  TIP3      H1             32.4094894280      -22.6578324159        6.9533236648  W2        10786           0.0000000000
     31659     10553  TIP3      H2             32.2675794280      -21.8217224159        8.2073836648  W2        10786           0.0000000000
     31660     10554  TIP3      OH2            16.9500194280      -38.5563124159       13.9599236648  W2        10787           0.0000000000
     31661     10554  TIP3      H1             16.2850694280      -38.8022824159       14.6030136648  W2        10787           0.0000000000
     31662     10554  TIP3      H2             16.5071494280      -37.9342724159       13.3827236648  W2        10787           0.0000000000
     31663     10555  TIP3      OH2            22.0962394280      -24.4067824159       14.3629036648  W2        10789           0.0000000000
     31664     10555  TIP3      H1             21.6713494280      -23.5969324159       14.0803636648  W2        10789           0.0000000000
     31665     10555  TIP3      H2             23.0005194280      -24.3213724159       14.0608836648  W2        10789           0.0000000000
     31666     10556  TIP3      OH2            26.4073794280      -23.0077824159       17.3222736648  W2        10790           0.0000000000
     31667     10556  TIP3      H1             26.5921294280      -23.3411724159       18.2003036648  W2        10790           0.0000000000
     31668     10556  TIP3      H2             27.2538294280      -22.6979224159       17.0001936648  W2        10790           0.0000000000
     31669     10557  TIP3      OH2            28.7524194280      -21.7218924159       16.5664136648  W2        10791           0.0000000000
     31670     10557  TIP3      H1             29.4293094280      -22.3546624159       16.3263336648  W2        10791           0.0000000000
     31671     10557  TIP3      H2             29.0742994280      -21.3208424159       17.3737436648  W2        10791           0.0000000000
     31672     10558  TIP3      OH2            33.6697994280      -39.1323424159       15.6459136648  W2        10792           0.0000000000
     31673     10558  TIP3      H1             32.8571494280      -38.8073124159       15.2583836648  W2        10792           0.0000000000
     31674     10558  TIP3      H2             33.9026494280      -39.8924924159       15.1128236648  W2        10792           0.0000000000
     31675     10559  TIP3      OH2            19.4979094280      -21.1503924159       14.4104336648  W2        10793           0.0000000000
     31676     10559  TIP3      H1             18.7775494280      -20.7102924159       13.9592036648  W2        10793           0.0000000000
     31677     10559  TIP3      H2             19.1323094280      -21.4009224159       15.2588336648  W2        10793           0.0000000000
     31678     10560  TIP3      OH2            21.9651694280      -21.5500024159       13.4401536648  W2        10794           0.0000000000
     31679     10560  TIP3      H1             21.1003894280      -21.4781524159       13.8441636648  W2        10794           0.0000000000
     31680     10560  TIP3      H2             21.9100694280      -21.0032724159       12.6564036648  W2        10794           0.0000000000
     31681     10561  TIP3      OH2            26.6757294280      -21.6621124159       12.6157536648  W2        10795           0.0000000000
     31682     10561  TIP3      H1             26.2191294280      -21.1331424159       11.9615936648  W2        10795           0.0000000000
     31683     10561  TIP3      H2             26.8385294280      -21.0589724159       13.3409836648  W2        10795           0.0000000000
     31684     10562  TIP3      OH2            29.0033594280      -22.7841524159       13.5607836648  W2        10796           0.0000000000
     31685     10562  TIP3      H1             28.0987294280      -22.6191324159       13.2949936648  W2        10796           0.0000000000
     31686     10562  TIP3      H2             29.4322194280      -21.9309324159       13.4951236648  W2        10796           0.0000000000
     31687     10563  TIP3      OH2            31.6075494280      -21.2142424159       13.8555636648  W2        10797           0.0000000000
     31688     10563  TIP3      H1             31.4257494280      -20.2983524159       13.6450536648  W2        10797           0.0000000000
     31689     10563  TIP3      H2             31.7843294280      -21.6245324159       13.0090236648  W2        10797           0.0000000000
     31690     10564  TIP3      OH2            18.9127194280      -22.5271424159       11.3206136648  W2        10798           0.0000000000
     31691     10564  TIP3      H1             18.8943194280      -22.9526324159       12.1778436648  W2        10798           0.0000000000
     31692     10564  TIP3      H2             19.7175094280      -22.8456424159       10.9118336648  W2        10798           0.0000000000
     31693     10565  TIP3      OH2            21.0540294280      -23.8172724159        9.9756036648  W2        10799           0.0000000000
     31694     10565  TIP3      H1             20.8350994280      -24.7335324159       10.1452036648  W2        10799           0.0000000000
     31695     10565  TIP3      H2             21.8782494280      -23.6772324159       10.4417436648  W2        10799           0.0000000000
     31696     10566  TIP3      OH2            23.5912794280      -23.3473424159       10.8244036648  W2        10800           0.0000000000
     31697     10566  TIP3      H1             23.8038494280      -24.2354424159       10.5374936648  W2        10800           0.0000000000
     31698     10566  TIP3      H2             23.6557894280      -23.3815724159       11.7788036648  W2        10800           0.0000000000
     31699     10567  TIP3      OH2            27.0996494280      -37.6832824159        9.9687336648  W2        10801           0.0000000000
     31700     10567  TIP3      H1             26.4253294280      -38.3127224159       10.2243136648  W2        10801           0.0000000000
     31701     10567  TIP3      H2             27.6635694280      -38.1673924159        9.3655236648  W2        10801           0.0000000000
     31702     10568  TIP3      OH2            32.2423694280      -39.5758824159       10.0814436648  W2        10802           0.0000000000
     31703     10568  TIP3      H1             32.8461294280      -39.0283424159        9.5795436648  W2        10802           0.0000000000
     31704     10568  TIP3      H2             31.3725694280      -39.2568424159        9.8408536648  W2        10802           0.0000000000
     31705     10569  TIP3      OH2            33.9694094280      -38.4370124159        8.4145336648  W2        10803           0.0000000000
     31706     10569  TIP3      H1             34.5811594280      -38.9514424159        7.8878936648  W2        10803           0.0000000000
     31707     10569  TIP3      H2             34.3517494280      -37.5598024159        8.4379736648  W2        10803           0.0000000000
     31708     10570  TIP3      OH2            19.4263994280      -39.0492524159        7.7907236648  W2        10804           0.0000000000
     31709     10570  TIP3      H1             18.6493794280      -39.2837624159        7.2833136648  W2        10804           0.0000000000
     31710     10570  TIP3      H2             19.9567594280      -39.8460424159        7.7995236648  W2        10804           0.0000000000
     31711     10571  TIP3      OH2            18.2627394280      -39.2514424159        3.5943336648  W2        10805           0.0000000000
     31712     10571  TIP3      H1             18.7018094280      -38.6403924159        3.0026836648  W2        10805           0.0000000000
     31713     10571  TIP3      H2             17.6289794280      -38.7130324159        4.0683336648  W2        10805           0.0000000000
     31714     10572  TIP3      OH2            24.0056594280      -39.1225424159        7.6040336648  W2        10806           0.0000000000
     31715     10572  TIP3      H1             24.8799994280      -38.7341124159        7.5744636648  W2        10806           0.0000000000
     31716     10572  TIP3      H2             23.8697394280      -39.3377624159        8.5267536648  W2        10806           0.0000000000
     31717     10573  TIP3      OH2            29.5624994280      -39.0925624159        9.2532036648  W2        10807           0.0000000000
     31718     10573  TIP3      H1             29.6386594280      -38.9974024159        8.3038036648  W2        10807           0.0000000000
     31719     10573  TIP3      H2             29.2874194280      -40.0002724159        9.3821136648  W2        10807           0.0000000000
     31720     10574  TIP3      OH2            30.9157594280      -39.0667824159        4.9457036648  W2        10808           0.0000000000
     31721     10574  TIP3      H1             30.2128694280      -38.4518624159        4.7358436648  W2        10808           0.0000000000
     31722     10574  TIP3      H2             30.4708994280      -39.9041124159        5.0767936648  W2        10808           0.0000000000
     31723     10575  TIP3      OH2            18.1636894280      -23.3032224159        4.4918436648  W2        10809           0.0000000000
     31724     10575  TIP3      H1             17.4786794280      -23.3413324159        3.8243536648  W2        10809           0.0000000000
     31725     10575  TIP3      H2             18.1674094280      -22.3904624159        4.7800536648  W2        10809           0.0000000000
     31726     10576  TIP3      OH2            20.1236494280      -37.3352924159        2.0367436648  W2        10810           0.0000000000
     31727     10576  TIP3      H1             20.6149894280      -37.9650524159        1.5092936648  W2        10810           0.0000000000
     31728     10576  TIP3      H2             20.7472794280      -37.0393524159        2.6998636648  W2        10810           0.0000000000
     31729     10577  TIP3      OH2            25.1496594280      -37.0421424159        4.4937936648  W2        10811           0.0000000000
     31730     10577  TIP3      H1             25.3277894280      -37.6888224159        5.1766536648  W2        10811           0.0000000000
     31731     10577  TIP3      H2             25.0962794280      -36.2083724159        4.9609036648  W2        10811           0.0000000000
     31732     10578  TIP3      OH2            27.0280394280      -22.0937324159        2.8894636648  W2        10812           0.0000000000
     31733     10578  TIP3      H1             27.8940594280      -21.7269924159        2.7112836648  W2        10812           0.0000000000
     31734     10578  TIP3      H2             26.7813194280      -22.5329324159        2.0755436648  W2        10812           0.0000000000
     31735     10579  TIP3      OH2            33.7369994280      -22.5307024159        5.5685736648  W2        10813           0.0000000000
     31736     10579  TIP3      H1             33.5427094280      -23.2784924159        5.0035336648  W2        10813           0.0000000000
     31737     10579  TIP3      H2             33.6980094280      -21.7726924159        4.9853636648  W2        10813           0.0000000000
     31738     10580  TIP3      OH2            19.3841994280      -38.5350624159       17.3083436648  W2        10814           0.0000000000
     31739     10580  TIP3      H1             19.0180194280      -39.3008024159       17.7508136648  W2        10814           0.0000000000
     31740     10580  TIP3      H2             20.2970494280      -38.5060424159       17.5948536648  W2        10814           0.0000000000
     31741     10581  TIP3      OH2            19.9818094280      -22.3831424159        1.5170536648  W2        10816           0.0000000000
     31742     10581  TIP3      H1             19.7142694280      -22.0968524159        2.3903636648  W2        10816           0.0000000000
     31743     10581  TIP3      H2             20.7530694280      -22.9292224159        1.6693036648  W2        10816           0.0000000000
     31744     10582  TIP3      OH2            32.9546194280      -23.7794624159       17.7187536648  W2        10818           0.0000000000
     31745     10582  TIP3      H1             32.1728094280      -23.9656624159       17.1988136648  W2        10818           0.0000000000
     31746     10582  TIP3      H2             32.8826094280      -22.8500324159       17.9360036648  W2        10818           0.0000000000
     31747     10583  TIP3      OH2            47.3606594280      -29.8930224159        7.7494736648  W2        10819           0.0000000000
     31748     10583  TIP3      H1             47.4497694280      -28.9492024159        7.6171836648  W2        10819           0.0000000000
     31749     10583  TIP3      H2             46.7224194280      -30.1683824159        7.0914136648  W2        10819           0.0000000000
     31750     10584  TIP3      OH2            46.2937894280      -30.6379524159       11.1682936648  W2        10820           0.0000000000
     31751     10584  TIP3      H1             46.2555394280      -31.2843224159       11.8732536648  W2        10820           0.0000000000
     31752     10584  TIP3      H2             45.9714394280      -31.1045124159       10.3971636648  W2        10820           0.0000000000
     31753     10585  TIP3      OH2            38.6622894280      -31.0237424159       12.7612836648  W2        10821           0.0000000000
     31754     10585  TIP3      H1             38.7034994280      -31.6494124159       13.4845236648  W2        10821           0.0000000000
     31755     10585  TIP3      H2             39.3650594280      -30.3998824159       12.9433236648  W2        10821           0.0000000000
     31756     10586  TIP3      OH2            49.9998094280      -27.6989124159        9.4698036648  W2        10822           0.0000000000
     31757     10586  TIP3      H1             49.5590794280      -28.4193124159        9.9203636648  W2        10822           0.0000000000
     31758     10586  TIP3      H2             49.9867794280      -26.9781924159       10.0995736648  W2        10822           0.0000000000
     31759     10587  TIP3      OH2            39.5855994280      -26.5738524159       11.2961936648  W2        10823           0.0000000000
     31760     10587  TIP3      H1             39.2161194280      -27.3758024159       10.9266236648  W2        10823           0.0000000000
     31761     10587  TIP3      H2             40.5267094280      -26.7423624159       11.3425336648  W2        10823           0.0000000000
     31762     10588  TIP3      OH2            36.1956494280      -32.9135924159        6.6890736648  W2        10824           0.0000000000
     31763     10588  TIP3      H1             35.7479894280      -32.0677224159        6.6707236648  W2        10824           0.0000000000
     31764     10588  TIP3      H2             35.6347694280      -33.4931724159        6.1735836648  W2        10824           0.0000000000
     31765     10589  TIP3      OH2            36.9062594280      -30.7516324159        8.8148736648  W2        10825           0.0000000000
     31766     10589  TIP3      H1             37.1196094280      -31.5214724159        9.3421736648  W2        10825           0.0000000000
     31767     10589  TIP3      H2             37.6440194280      -30.6619624159        8.2116336648  W2        10825           0.0000000000
     31768     10590  TIP3      OH2            47.1113594280      -22.5947424159        9.6818436648  W2        10826           0.0000000000
     31769     10590  TIP3      H1             47.7309994280      -23.2712724159        9.4087636648  W2        10826           0.0000000000
     31770     10590  TIP3      H2             46.9030994280      -22.8126624159       10.5903336648  W2        10826           0.0000000000
     31771     10591  TIP3      OH2            44.6832294280      -28.2058124159       11.5743936648  W2        10827           0.0000000000
     31772     10591  TIP3      H1             44.9870194280      -28.8916724159       10.9798036648  W2        10827           0.0000000000
     31773     10591  TIP3      H2             45.4046294280      -28.0869424159       12.1921936648  W2        10827           0.0000000000
     31774     10592  TIP3      OH2            53.3462094280      -36.6042824159       12.4350136648  W2        10828           0.0000000000
     31775     10592  TIP3      H1             53.3954294280      -35.9941624159       13.1709236648  W2        10828           0.0000000000
     31776     10592  TIP3      H2             53.7717194280      -36.1431924159       11.7121236648  W2        10828           0.0000000000
     31777     10593  TIP3      OH2            47.8239294280      -33.8115724159       11.9018736648  W2        10829           0.0000000000
     31778     10593  TIP3      H1             47.9665194280      -34.7578724159       11.9220336648  W2        10829           0.0000000000
     31779     10593  TIP3      H2             47.7178294280      -33.6045924159       10.9733636648  W2        10829           0.0000000000
     31780     10594  TIP3      OH2            40.9787594280      -35.7099324159        9.1743536648  W2        10830           0.0000000000
     31781     10594  TIP3      H1             41.0218694280      -34.8500824159        8.7559836648  W2        10830           0.0000000000
     31782     10594  TIP3      H2             40.5211694280      -36.2624624159        8.5406736648  W2        10830           0.0000000000
     31783     10595  TIP3      OH2            48.7010294280      -35.5793724159        7.5751836648  W2        10831           0.0000000000
     31784     10595  TIP3      H1             49.3474594280      -35.9080524159        8.1999436648  W2        10831           0.0000000000
     31785     10595  TIP3      H2             49.2109694280      -35.0614724159        6.9523236648  W2        10831           0.0000000000
     31786     10596  TIP3      OH2            37.5989094280      -33.3133524159        9.9364936648  W2        10832           0.0000000000
     31787     10596  TIP3      H1             38.2525694280      -33.8631824159       10.3685036648  W2        10832           0.0000000000
     31788     10596  TIP3      H2             37.6228394280      -33.5874524159        9.0196936648  W2        10832           0.0000000000
     31789     10597  TIP3      OH2            42.7553594280      -31.7632224159        9.1516436648  W2        10833           0.0000000000
     31790     10597  TIP3      H1             43.3714594280      -32.2896824159        9.6610436648  W2        10833           0.0000000000
     31791     10597  TIP3      H2             42.1692394280      -32.4033524159        8.7480036648  W2        10833           0.0000000000
     31792     10598  TIP3      OH2            53.7376694280      -35.1263624159       14.6709936648  W2        10834           0.0000000000
     31793     10598  TIP3      H1             53.0491294280      -34.4682924159       14.5756536648  W2        10834           0.0000000000
     31794     10598  TIP3      H2             53.7531294280      -35.3235724159       15.6075336648  W2        10834           0.0000000000
     31795     10599  TIP3      OH2            39.7889494280      -36.7920924159       13.2484336648  W2        10835           0.0000000000
     31796     10599  TIP3      H1             39.5701194280      -36.2620324159       12.4820336648  W2        10835           0.0000000000
     31797     10599  TIP3      H2             39.1210394280      -36.5655424159       13.8955736648  W2        10835           0.0000000000
     31798     10600  TIP3      OH2            47.1579294280      -27.2919824159        6.7923436648  W2        10836           0.0000000000
     31799     10600  TIP3      H1             46.8624394280      -27.6147524159        5.9410336648  W2        10836           0.0000000000
     31800     10600  TIP3      H2             46.8337094280      -26.3923124159        6.8336036648  W2        10836           0.0000000000
     31801     10601  TIP3      OH2            42.3580894280      -29.1165224159       13.5358036648  W2        10837           0.0000000000
     31802     10601  TIP3      H1             41.6179994280      -28.5183724159       13.6393236648  W2        10837           0.0000000000
     31803     10601  TIP3      H2             43.0720394280      -28.5625624159       13.2201636648  W2        10837           0.0000000000
     31804     10602  TIP3      OH2            50.4648694280      -36.2884424159        9.5557736648  W2        10838           0.0000000000
     31805     10602  TIP3      H1             50.2496694280      -37.0541024159       10.0883736648  W2        10838           0.0000000000
     31806     10602  TIP3      H2             51.1206094280      -35.8159824159       10.0686236648  W2        10838           0.0000000000
     31807     10603  TIP3      OH2            39.3826794280      -34.8999124159       11.2006536648  W2        10839           0.0000000000
     31808     10603  TIP3      H1             39.9963094280      -34.2671524159       11.5738936648  W2        10839           0.0000000000
     31809     10603  TIP3      H2             39.8947494280      -35.3724124159       10.5443436648  W2        10839           0.0000000000
     31810     10604  TIP3      OH2            40.7655194280      -27.1522224159       14.3229536648  W2        10840           0.0000000000
     31811     10604  TIP3      H1             40.7602794280      -26.2728724159       13.9448836648  W2        10840           0.0000000000
     31812     10604  TIP3      H2             39.9119294280      -27.2358124159       14.7479436648  W2        10840           0.0000000000
     31813     10605  TIP3      OH2            36.8866094280      -27.4814324159        5.1048836648  W2        10841           0.0000000000
     31814     10605  TIP3      H1             36.6146994280      -27.2523324159        4.2161736648  W2        10841           0.0000000000
     31815     10605  TIP3      H2             36.9321794280      -26.6435524159        5.5654136648  W2        10841           0.0000000000
     31816     10606  TIP3      OH2            50.5115794280      -25.8598424159       11.8177336648  W2        10842           0.0000000000
     31817     10606  TIP3      H1             49.5699494280      -25.8014524159       11.9794236648  W2        10842           0.0000000000
     31818     10606  TIP3      H2             50.7881894280      -24.9537924159       11.6807036648  W2        10842           0.0000000000
     31819     10607  TIP3      OH2            50.8122794280      -37.5733124159       13.2351236648  W2        10843           0.0000000000
     31820     10607  TIP3      H1             50.0761994280      -36.9626024159       13.1972536648  W2        10843           0.0000000000
     31821     10607  TIP3      H2             51.4956794280      -37.1584124159       12.7087636648  W2        10843           0.0000000000
     31822     10608  TIP3      OH2            43.8154194280      -39.4865824159       10.7009236648  W2        10844           0.0000000000
     31823     10608  TIP3      H1             43.6978394280      -40.4349824159       10.6467536648  W2        10844           0.0000000000
     31824     10608  TIP3      H2             42.9604294280      -39.1539724159       10.9740336648  W2        10844           0.0000000000
     31825     10609  TIP3      OH2            48.7636994280      -24.0784924159        8.4428936648  W2        10845           0.0000000000
     31826     10609  TIP3      H1             49.1889294280      -24.7857024159        7.9578536648  W2        10845           0.0000000000
     31827     10609  TIP3      H2             49.0806994280      -23.2772224159        8.0261136648  W2        10845           0.0000000000
     31828     10610  TIP3      OH2            49.9233494280      -26.1776424159        6.9515536648  W2        10846           0.0000000000
     31829     10610  TIP3      H1             49.6658294280      -26.8676324159        6.3401436648  W2        10846           0.0000000000
     31830     10610  TIP3      H2             49.9944294280      -26.6205224159        7.7971436648  W2        10846           0.0000000000
     31831     10611  TIP3      OH2            51.6093694280      -27.6109724159       15.4289036648  W2        10847           0.0000000000
     31832     10611  TIP3      H1             51.7489994280      -28.2027224159       14.6896036648  W2        10847           0.0000000000
     31833     10611  TIP3      H2             51.7766494280      -26.7383824159       15.0727836648  W2        10847           0.0000000000
     31834     10612  TIP3      OH2            46.0819094280      -30.6490224159        5.2015036648  W2        10848           0.0000000000
     31835     10612  TIP3      H1             45.3704594280      -30.1140524159        4.8495536648  W2        10848           0.0000000000
     31836     10612  TIP3      H2             46.7728694280      -30.5938124159        4.5413936648  W2        10848           0.0000000000
     31837     10613  TIP3      OH2            46.1358294280      -32.1915924159        2.2400036648  W2        10849           0.0000000000
     31838     10613  TIP3      H1             46.8368194280      -32.1689024159        2.8914036648  W2        10849           0.0000000000
     31839     10613  TIP3      H2             46.4381194280      -32.8196224159        1.5839336648  W2        10849           0.0000000000
     31840     10614  TIP3      OH2            53.4512994280      -31.2711724159       13.4949436648  W2        10850           0.0000000000
     31841     10614  TIP3      H1             52.7987094280      -30.5766124159       13.5840336648  W2        10850           0.0000000000
     31842     10614  TIP3      H2             53.9163294280      -31.0610824159       12.6851036648  W2        10850           0.0000000000
     31843     10615  TIP3      OH2            49.4876794280      -30.4396924159        6.1530936648  W2        10851           0.0000000000
     31844     10615  TIP3      H1             48.7557794280      -30.2113224159        6.7261536648  W2        10851           0.0000000000
     31845     10615  TIP3      H2             49.9348994280      -31.1534224159        6.6078436648  W2        10851           0.0000000000
     31846     10616  TIP3      OH2            49.3850294280      -32.2654324159       15.2207936648  W2        10852           0.0000000000
     31847     10616  TIP3      H1             49.4649394280      -31.5019924159       15.7926436648  W2        10852           0.0000000000
     31848     10616  TIP3      H2             48.7837994280      -31.9861924159       14.5303036648  W2        10852           0.0000000000
     31849     10617  TIP3      OH2            41.1330494280      -29.8090724159        8.0355936648  W2        10853           0.0000000000
     31850     10617  TIP3      H1             40.8025694280      -30.1797324159        7.2172936648  W2        10853           0.0000000000
     31851     10617  TIP3      H2             41.7214594280      -30.4796724159        8.3824236648  W2        10853           0.0000000000
     31852     10618  TIP3      OH2            42.4997994280      -26.3810124159       10.7168136648  W2        10854           0.0000000000
     31853     10618  TIP3      H1             42.4049294280      -26.9597024159        9.9602736648  W2        10854           0.0000000000
     31854     10618  TIP3      H2             43.2291594280      -26.7524424159       11.2130936648  W2        10854           0.0000000000
     31855     10619  TIP3      OH2            41.4995994280      -31.0405124159       11.6690936648  W2        10855           0.0000000000
     31856     10619  TIP3      H1             42.0648494280      -30.9190924159       10.9062136648  W2        10855           0.0000000000
     31857     10619  TIP3      H2             41.8184894280      -30.4030124159       12.3079436648  W2        10855           0.0000000000
     31858     10620  TIP3      OH2            47.8088194280      -25.5373224159       12.4031436648  W2        10856           0.0000000000
     31859     10620  TIP3      H1             47.5684794280      -24.8750124159       13.0510636648  W2        10856           0.0000000000
     31860     10620  TIP3      H2             47.6106394280      -26.3718024159       12.8281036648  W2        10856           0.0000000000
     31861     10621  TIP3      OH2            42.3796694280      -26.6412424159       16.3862836648  W2        10857           0.0000000000
     31862     10621  TIP3      H1             42.0684194280      -25.8589224159       16.8416036648  W2        10857           0.0000000000
     31863     10621  TIP3      H2             41.7296894280      -26.7943324159       15.7004836648  W2        10857           0.0000000000
     31864     10622  TIP3      OH2            48.3586294280      -31.2774024159        3.8382136648  W2        10858           0.0000000000
     31865     10622  TIP3      H1             48.9381794280      -31.1273724159        4.5851036648  W2        10858           0.0000000000
     31866     10622  TIP3      H2             48.7726294280      -30.8066624159        3.1148536648  W2        10858           0.0000000000
     31867     10623  TIP3      OH2            39.2996594280      -30.4431324159       15.6148536648  W2        10859           0.0000000000
     31868     10623  TIP3      H1             39.3699794280      -29.7924524159       16.3133536648  W2        10859           0.0000000000
     31869     10623  TIP3      H2             38.4088794280      -30.3403824159       15.2799436648  W2        10859           0.0000000000
     31870     10624  TIP3      OH2            46.0851194280      -24.5405524159        7.2735236648  W2        10860           0.0000000000
     31871     10624  TIP3      H1             46.5588794280      -24.2449224159        8.0509436648  W2        10860           0.0000000000
     31872     10624  TIP3      H2             45.5220494280      -23.8023924159        7.0404836648  W2        10860           0.0000000000
     31873     10625  TIP3      OH2            40.6192594280      -24.5697424159       17.1496636648  W2        10861           0.0000000000
     31874     10625  TIP3      H1             40.6267894280      -24.7057724159       16.2022136648  W2        10861           0.0000000000
     31875     10625  TIP3      H2             39.7032994280      -24.6869324159       17.4016636648  W2        10861           0.0000000000
     31876     10626  TIP3      OH2            52.0574694280      -39.5273624159        3.6511836648  W2        10862           0.0000000000
     31877     10626  TIP3      H1             51.1575394280      -39.3884624159        3.9462436648  W2        10862           0.0000000000
     31878     10626  TIP3      H2             52.3093094280      -38.6959024159        3.2493536648  W2        10862           0.0000000000
     31879     10627  TIP3      OH2            40.1233194280      -30.7396424159        5.6248736648  W2        10863           0.0000000000
     31880     10627  TIP3      H1             39.8314494280      -29.9714724159        5.1340036648  W2        10863           0.0000000000
     31881     10627  TIP3      H2             39.4488394280      -31.3990224159        5.4620136648  W2        10863           0.0000000000
     31882     10628  TIP3      OH2            53.2466094280      -25.1611224159        2.0275736648  W2        10864           0.0000000000
     31883     10628  TIP3      H1             53.3199594280      -24.2221024159        2.1981036648  W2        10864           0.0000000000
     31884     10628  TIP3      H2             54.1521194280      -25.4662624159        1.9713036648  W2        10864           0.0000000000
     31885     10629  TIP3      OH2            36.2163294280      -28.3767224159       14.4398536648  W2        10865           0.0000000000
     31886     10629  TIP3      H1             35.7151694280      -28.4047824159       13.6248236648  W2        10865           0.0000000000
     31887     10629  TIP3      H2             36.2216994280      -29.2824024159       14.7495836648  W2        10865           0.0000000000
     31888     10630  TIP3      OH2            35.9665994280      -25.5963424159       11.3238736648  W2        10866           0.0000000000
     31889     10630  TIP3      H1             36.9126594280      -25.7406424159       11.3048236648  W2        10866           0.0000000000
     31890     10630  TIP3      H2             35.8542294280      -24.8120624159       11.8609936648  W2        10866           0.0000000000
     31891     10631  TIP3      OH2            54.1644494280      -24.9303724159       17.0062436648  W2        10867           0.0000000000
     31892     10631  TIP3      H1             54.1151294280      -25.8855624159       16.9690036648  W2        10867           0.0000000000
     31893     10631  TIP3      H2             53.3376794280      -24.6628424159       17.4076236648  W2        10867           0.0000000000
     31894     10632  TIP3      OH2            45.1428494280      -25.3564524159       15.8823836648  W2        10868           0.0000000000
     31895     10632  TIP3      H1             45.2303094280      -24.5299924159       16.3572936648  W2        10868           0.0000000000
     31896     10632  TIP3      H2             44.2793594280      -25.6860724159       16.1313136648  W2        10868           0.0000000000
     31897     10633  TIP3      OH2            45.5574294280      -21.5840824159        5.6884436648  W2        10869           0.0000000000
     31898     10633  TIP3      H1             45.4820294280      -21.7053624159        4.7419636648  W2        10869           0.0000000000
     31899     10633  TIP3      H2             45.5902994280      -20.6348124159        5.8069036648  W2        10869           0.0000000000
     31900     10634  TIP3      OH2            39.2108094280      -22.7953824159        7.4693436648  W2        10870           0.0000000000
     31901     10634  TIP3      H1             39.3628494280      -23.1433424159        8.3479936648  W2        10870           0.0000000000
     31902     10634  TIP3      H2             38.3598494280      -23.1516524159        7.2140636648  W2        10870           0.0000000000
     31903     10635  TIP3      OH2            48.6590294280      -22.4300624159        2.6906836648  W2        10871           0.0000000000
     31904     10635  TIP3      H1             49.0338694280      -23.1744524159        2.2199436648  W2        10871           0.0000000000
     31905     10635  TIP3      H2             48.6633994280      -22.7000024159        3.6090136648  W2        10871           0.0000000000
     31906     10636  TIP3      OH2            48.3278394280      -22.5043524159        5.4399036648  W2        10872           0.0000000000
     31907     10636  TIP3      H1             47.3928194280      -22.4041624159        5.6186036648  W2        10872           0.0000000000
     31908     10636  TIP3      H2             48.6080294280      -23.2137524159        6.0182236648  W2        10872           0.0000000000
     31909     10637  TIP3      OH2            51.3164294280      -33.4371224159       17.4864636648  W2        10873           0.0000000000
     31910     10637  TIP3      H1             50.9091094280      -32.9565624159       16.7657936648  W2        10873           0.0000000000
     31911     10637  TIP3      H2             51.3569994280      -34.3425224159       17.1785436648  W2        10873           0.0000000000
     31912     10638  TIP3      OH2            38.4653794280      -27.0531824159       15.4831336648  W2        10874           0.0000000000
     31913     10638  TIP3      H1             38.6815094280      -27.4146224159       16.3427136648  W2        10874           0.0000000000
     31914     10638  TIP3      H2             37.6098494280      -27.4278024159       15.2734836648  W2        10874           0.0000000000
     31915     10639  TIP3      OH2            41.0841794280      -38.5831324159       11.4785536648  W2        10875           0.0000000000
     31916     10639  TIP3      H1             40.2225494280      -38.6703124159       11.0708436648  W2        10875           0.0000000000
     31917     10639  TIP3      H2             41.0617494280      -37.7271224159       11.9063136648  W2        10875           0.0000000000
     31918     10640  TIP3      OH2            45.7469594280      -38.8610924159       14.8532536648  W2        10876           0.0000000000
     31919     10640  TIP3      H1             46.1672694280      -39.2763824159       15.6063136648  W2        10876           0.0000000000
     31920     10640  TIP3      H2             44.8139194280      -39.0397624159       14.9704536648  W2        10876           0.0000000000
     31921     10641  TIP3      OH2            49.0734494280      -35.1055724159       15.7067036648  W2        10877           0.0000000000
     31922     10641  TIP3      H1             48.5593994280      -35.2313524159       16.5043036648  W2        10877           0.0000000000
     31923     10641  TIP3      H2             48.9179194280      -34.1932624159       15.4623236648  W2        10877           0.0000000000
     31924     10642  TIP3      OH2            49.8359394280      -30.2445724159        1.4680036648  W2        10878           0.0000000000
     31925     10642  TIP3      H1             49.8780194280      -30.4671824159        0.5380036648  W2        10878           0.0000000000
     31926     10642  TIP3      H2             50.6851494280      -29.8458624159        1.6579936648  W2        10878           0.0000000000
     31927     10643  TIP3      OH2            45.4086894280      -36.3687524159        2.1383336648  W2        10879           0.0000000000
     31928     10643  TIP3      H1             45.1551694280      -36.3495924159        3.0611436648  W2        10879           0.0000000000
     31929     10643  TIP3      H2             45.1518994280      -37.2402124159        1.8369536648  W2        10879           0.0000000000
     31930     10644  TIP3      OH2            41.1751894280      -33.6176824159       12.5735736648  W2        10880           0.0000000000
     31931     10644  TIP3      H1             40.5333994280      -33.6579524159       13.2825836648  W2        10880           0.0000000000
     31932     10644  TIP3      H2             41.2123894280      -32.6912124159       12.3358736648  W2        10880           0.0000000000
     31933     10645  TIP3      OH2            41.1720994280      -33.3966724159        7.4855736648  W2        10881           0.0000000000
     31934     10645  TIP3      H1             40.2793894280      -33.7370624159        7.4269536648  W2        10881           0.0000000000
     31935     10645  TIP3      H2             41.6227594280      -33.7735824159        6.7298936648  W2        10881           0.0000000000
     31936     10646  TIP3      OH2            46.7076494280      -32.9806424159        6.3026536648  W2        10882           0.0000000000
     31937     10646  TIP3      H1             46.2986794280      -32.1657824159        6.0111336648  W2        10882           0.0000000000
     31938     10646  TIP3      H2             47.4282694280      -33.1206324159        5.6883636648  W2        10882           0.0000000000
     31939     10647  TIP3      OH2            45.8098094280      -32.8050024159       17.7907236648  W2        10883           0.0000000000
     31940     10647  TIP3      H1             45.2471894280      -33.5098424159       18.1115036648  W2        10883           0.0000000000
     31941     10647  TIP3      H2             46.6361494280      -32.9258124159       18.2584836648  W2        10883           0.0000000000
     31942     10648  TIP3      OH2            47.7124194280      -33.5346024159        9.1166236648  W2        10884           0.0000000000
     31943     10648  TIP3      H1             47.5168694280      -32.9289224159        8.4016836648  W2        10884           0.0000000000
     31944     10648  TIP3      H2             47.8936794280      -34.3680824159        8.6822536648  W2        10884           0.0000000000
     31945     10649  TIP3      OH2            38.9252394280      -33.2973324159       14.4407736648  W2        10885           0.0000000000
     31946     10649  TIP3      H1             38.8871794280      -32.8971724159       15.3094836648  W2        10885           0.0000000000
     31947     10649  TIP3      H2             38.4343494280      -34.1140924159       14.5310636648  W2        10885           0.0000000000
     31948     10650  TIP3      OH2            42.2909794280      -35.9231024159        1.2393736648  W2        10886           0.0000000000
     31949     10650  TIP3      H1             41.8600494280      -36.3680924159        1.9691136648  W2        10886           0.0000000000
     31950     10650  TIP3      H2             41.5728494280      -35.5514724159        0.7271236648  W2        10886           0.0000000000
     31951     10651  TIP3      OH2            35.5333194280      -36.1811524159        8.2912436648  W2        10887           0.0000000000
     31952     10651  TIP3      H1             36.1640894280      -36.2099424159        9.0106336648  W2        10887           0.0000000000
     31953     10651  TIP3      H2             35.9827494280      -36.6062824159        7.5608336648  W2        10887           0.0000000000
     31954     10652  TIP3      OH2            36.8075294280      -35.4349524159        3.7152836648  W2        10888           0.0000000000
     31955     10652  TIP3      H1             37.2816994280      -34.8439624159        3.1303736648  W2        10888           0.0000000000
     31956     10652  TIP3      H2             36.0901694280      -34.9046624159        4.0622936648  W2        10888           0.0000000000
     31957     10653  TIP3      OH2            46.9763394280      -31.8964724159       13.7878636648  W2        10889           0.0000000000
     31958     10653  TIP3      H1             47.2998194280      -32.5275024159       13.1449136648  W2        10889           0.0000000000
     31959     10653  TIP3      H2             46.5362694280      -32.4312524159       14.4486036648  W2        10889           0.0000000000
     31960     10654  TIP3      OH2            43.7536294280      -35.9689224159        8.5719836648  W2        10890           0.0000000000
     31961     10654  TIP3      H1             42.8427394280      -35.9122424159        8.8605836648  W2        10890           0.0000000000
     31962     10654  TIP3      H2             44.2589194280      -36.0293724159        9.3827036648  W2        10890           0.0000000000
     31963     10655  TIP3      OH2            38.5819694280      -34.3402924159        7.3987436648  W2        10891           0.0000000000
     31964     10655  TIP3      H1             37.6927694280      -34.2407424159        7.0587036648  W2        10891           0.0000000000
     31965     10655  TIP3      H2             38.8784594280      -35.1819924159        7.0525336648  W2        10891           0.0000000000
     31966     10656  TIP3      OH2            42.2351494280      -34.3400324159        5.0552036648  W2        10892           0.0000000000
     31967     10656  TIP3      H1             43.1666994280      -34.2110324159        5.2335136648  W2        10892           0.0000000000
     31968     10656  TIP3      H2             42.0201794280      -33.6706024159        4.4056736648  W2        10892           0.0000000000
     31969     10657  TIP3      OH2            48.1588194280      -36.7342924159       11.8361636648  W2        10893           0.0000000000
     31970     10657  TIP3      H1             47.4819794280      -36.6029824159       12.5001336648  W2        10893           0.0000000000
     31971     10657  TIP3      H2             47.6733094280      -36.8893424159       11.0259336648  W2        10893           0.0000000000
     31972     10658  TIP3      OH2            40.9091694280      -33.1458124159        2.6218136648  W2        10894           0.0000000000
     31973     10658  TIP3      H1             40.3666794280      -33.5254324159        1.9305736648  W2        10894           0.0000000000
     31974     10658  TIP3      H2             41.7426594280      -32.9513424159        2.1932236648  W2        10894           0.0000000000
     31975     10659  TIP3      OH2            39.0443094280      -28.5886224159       17.7209736648  W2        10896           0.0000000000
     31976     10659  TIP3      H1             39.7765494280      -28.3340324159       18.2824236648  W2        10896           0.0000000000
     31977     10659  TIP3      H2             38.2641794280      -28.3840824159       18.2365136648  W2        10896           0.0000000000
     31978     10660  TIP3      OH2            45.0735994280      -33.1816224159       10.4589436648  W2        10897           0.0000000000
     31979     10660  TIP3      H1             45.6379394280      -33.7279624159        9.9119036648  W2        10897           0.0000000000
     31980     10660  TIP3      H2             44.9259394280      -33.7034324159       11.2477036648  W2        10897           0.0000000000
     31981     10661  TIP3      OH2            40.0755694280      -37.0450124159        6.8774236648  W2        10898           0.0000000000
     31982     10661  TIP3      H1             39.7585194280      -37.9474824159        6.8419636648  W2        10898           0.0000000000
     31983     10661  TIP3      H2             40.8569794280      -37.0432724159        6.3245836648  W2        10898           0.0000000000
     31984     10662  TIP3      OH2            43.7001894280      -34.7930124159       12.8729836648  W2        10899           0.0000000000
     31985     10662  TIP3      H1             42.8647194280      -34.3390624159       12.9832236648  W2        10899           0.0000000000
     31986     10662  TIP3      H2             44.2242494280      -34.5171624159       13.6249736648  W2        10899           0.0000000000
     31987     10663  TIP3      OH2            44.2444494280      -28.5802424159        4.5576236648  W2        10900           0.0000000000
     31988     10663  TIP3      H1             43.4995494280      -29.0877124159        4.2354136648  W2        10900           0.0000000000
     31989     10663  TIP3      H2             44.1101694280      -28.5314424159        5.5041036648  W2        10900           0.0000000000
     31990     10664  TIP3      OH2            51.3943394280      -29.4474224159       13.3443836648  W2        10901           0.0000000000
     31991     10664  TIP3      H1             52.0362194280      -28.9907924159       12.8006036648  W2        10901           0.0000000000
     31992     10664  TIP3      H2             50.5640294280      -29.3341824159       12.8817936648  W2        10901           0.0000000000
     31993     10665  TIP3      OH2            48.1421294280      -35.7662524159        2.7568836648  W2        10902           0.0000000000
     31994     10665  TIP3      H1             47.2035494280      -35.6546924159        2.6057636648  W2        10902           0.0000000000
     31995     10665  TIP3      H2             48.4393394280      -34.9095624159        3.0634536648  W2        10902           0.0000000000
     31996     10666  TIP3      OH2            45.7636594280      -28.3959124159       15.7945336648  W2        10903           0.0000000000
     31997     10666  TIP3      H1             45.4182694280      -28.7776724159       16.6014936648  W2        10903           0.0000000000
     31998     10666  TIP3      H2             45.5636694280      -27.4625524159       15.8658236648  W2        10903           0.0000000000
     31999     10667  TIP3      OH2            48.8604794280      -33.8989824159        4.4176236648  W2        10904           0.0000000000
     32000     10667  TIP3      H1             49.7523794280      -34.0364824159        4.7367436648  W2        10904           0.0000000000
     32001     10667  TIP3      H2             48.9168394280      -33.1083724159        3.8809736648  W2        10904           0.0000000000
     32002     10668  TIP3      OH2            39.3692794280      -29.2852424159       10.3274136648  W2        10905           0.0000000000
     32003     10668  TIP3      H1             40.1139994280      -29.2876724159        9.7260636648  W2        10905           0.0000000000
     32004     10668  TIP3      H2             39.4469394280      -30.1088624159       10.8089236648  W2        10905           0.0000000000
     32005     10669  TIP3      OH2            46.3698594280      -27.1218124159        3.5830836648  W2        10906           0.0000000000
     32006     10669  TIP3      H1             46.0746994280      -26.2950224159        3.9645636648  W2        10906           0.0000000000
     32007     10669  TIP3      H2             45.6668594280      -27.7411224159        3.7792236648  W2        10906           0.0000000000
     32008     10670  TIP3      OH2            36.3772494280      -30.8245524159       15.6422636648  W2        10907           0.0000000000
     32009     10670  TIP3      H1             36.6001094280      -31.2425924159       16.4740136648  W2        10907           0.0000000000
     32010     10670  TIP3      H2             35.7752594280      -31.4370524159       15.2195436648  W2        10907           0.0000000000
     32011     10671  TIP3      OH2            48.0140194280      -25.9343624159       15.7450336648  W2        10909           0.0000000000
     32012     10671  TIP3      H1             47.1134494280      -25.7511024159       15.4774236648  W2        10909           0.0000000000
     32013     10671  TIP3      H2             48.0481294280      -25.6754324159       16.6659136648  W2        10909           0.0000000000
     32014     10672  TIP3      OH2            53.7453494280      -33.6895724159        4.1122936648  W2        10910           0.0000000000
     32015     10672  TIP3      H1             53.1909794280      -34.0857724159        3.4400436648  W2        10910           0.0000000000
     32016     10672  TIP3      H2             53.8457094280      -32.7790524159        3.8346236648  W2        10910           0.0000000000
     32017     10673  TIP3      OH2            53.7085494280      -27.8894024159       16.9494436648  W2        10911           0.0000000000
     32018     10673  TIP3      H1             52.8573994280      -27.6510224159       16.5820836648  W2        10911           0.0000000000
     32019     10673  TIP3      H2             54.2988894280      -27.9060824159       16.1961536648  W2        10911           0.0000000000
     32020     10674  TIP3      OH2            52.0405194280      -24.9035324159        4.5775036648  W2        10912           0.0000000000
     32021     10674  TIP3      H1             51.6676294280      -25.7291524159        4.8865636648  W2        10912           0.0000000000
     32022     10674  TIP3      H2             52.3178694280      -25.0865924159        3.6798436648  W2        10912           0.0000000000
     32023     10675  TIP3      OH2            49.2009094280      -30.0955824159       11.5986936648  W2        10913           0.0000000000
     32024     10675  TIP3      H1             48.2725994280      -30.3273924159       11.5716236648  W2        10913           0.0000000000
     32025     10675  TIP3      H2             49.6520194280      -30.8726024159       11.2685736648  W2        10913           0.0000000000
     32026     10676  TIP3      OH2            41.7442194280      -25.7674224159        7.7315636648  W2        10914           0.0000000000
     32027     10676  TIP3      H1             42.2714394280      -24.9939824159        7.5314436648  W2        10914           0.0000000000
     32028     10676  TIP3      H2             40.8640694280      -25.5425024159        7.4299636648  W2        10914           0.0000000000
     32029     10677  TIP3      OH2            37.4989894280      -30.9050124159        2.3188036648  W2        10915           0.0000000000
     32030     10677  TIP3      H1             38.1149794280      -30.2782924159        2.6982836648  W2        10915           0.0000000000
     32031     10677  TIP3      H2             36.6372494280      -30.5890324159        2.5904536648  W2        10915           0.0000000000
     32032     10678  TIP3      OH2            43.1714494280      -28.1044324159        7.3079936648  W2        10916           0.0000000000
     32033     10678  TIP3      H1             42.9304494280      -27.1789924159        7.3495236648  W2        10916           0.0000000000
     32034     10678  TIP3      H2             42.4308094280      -28.5633024159        7.7043836648  W2        10916           0.0000000000
     32035     10679  TIP3      OH2            43.6861094280      -23.9550724159       13.6231036648  W2        10917           0.0000000000
     32036     10679  TIP3      H1             44.0485794280      -23.1005124159       13.3895436648  W2        10917           0.0000000000
     32037     10679  TIP3      H2             44.2176294280      -24.2469124159       14.3637336648  W2        10917           0.0000000000
     32038     10680  TIP3      OH2            41.8545294280      -23.0826724159        6.8532136648  W2        10918           0.0000000000
     32039     10680  TIP3      H1             40.9045794280      -22.9769324159        6.9045436648  W2        10918           0.0000000000
     32040     10680  TIP3      H2             42.2063394280      -22.2619324159        7.1979636648  W2        10918           0.0000000000
     32041     10681  TIP3      OH2            47.2301894280      -27.8560024159       13.3236636648  W2        10919           0.0000000000
     32042     10681  TIP3      H1             46.8043194280      -28.0838324159       14.1500636648  W2        10919           0.0000000000
     32043     10681  TIP3      H2             47.8107694280      -28.5948224159       13.1411936648  W2        10919           0.0000000000
     32044     10682  TIP3      OH2            49.4330794280      -26.9269524159        2.3975636648  W2        10920           0.0000000000
     32045     10682  TIP3      H1             49.7863894280      -27.3069724159        3.2019136648  W2        10920           0.0000000000
     32046     10682  TIP3      H2             48.4844294280      -27.0204724159        2.4844936648  W2        10920           0.0000000000
     32047     10683  TIP3      OH2            49.8886094280      -23.3040524159       15.7931436648  W2        10921           0.0000000000
     32048     10683  TIP3      H1             49.2869294280      -23.8597624159       15.2977736648  W2        10921           0.0000000000
     32049     10683  TIP3      H2             50.1699794280      -22.6370724159       15.1668836648  W2        10921           0.0000000000
     32050     10684  TIP3      OH2            53.9365194280      -22.4477024159        2.5985836648  W2        10922           0.0000000000
     32051     10684  TIP3      H1             54.6803094280      -21.8616524159        2.4587436648  W2        10922           0.0000000000
     32052     10684  TIP3      H2             53.2423294280      -21.8791224159        2.9318236648  W2        10922           0.0000000000
     32053     10685  TIP3      OH2            38.0111994280      -36.0712824159       15.2004036648  W2        10923           0.0000000000
     32054     10685  TIP3      H1             37.1184294280      -35.7327424159       15.1328036648  W2        10923           0.0000000000
     32055     10685  TIP3      H2             37.9124794280      -36.9266724159       15.6184836648  W2        10923           0.0000000000
     32056     10686  TIP3      OH2            50.2990094280      -28.2547524159        4.6243536648  W2        10924           0.0000000000
     32057     10686  TIP3      H1             50.0217694280      -28.9828224159        5.1804636648  W2        10924           0.0000000000
     32058     10686  TIP3      H2             51.2263094280      -28.1355524159        4.8296136648  W2        10924           0.0000000000
     32059     10687  TIP3      OH2            37.6623994280      -24.2668424159       13.6353436648  W2        10925           0.0000000000
     32060     10687  TIP3      H1             37.8794294280      -25.1986024159       13.6043136648  W2        10925           0.0000000000
     32061     10687  TIP3      H2             37.9087494280      -23.9923424159       14.5186236648  W2        10925           0.0000000000
     32062     10688  TIP3      OH2            43.5238594280      -25.8153424159        0.8445636648  W2        10926           0.0000000000
     32063     10688  TIP3      H1             43.7628394280      -26.5635324159        0.2974536648  W2        10926           0.0000000000
     32064     10688  TIP3      H2             43.2549894280      -26.2031724159        1.6773436648  W2        10926           0.0000000000
     32065     10689  TIP3      OH2            42.4609194280      -26.2449624159        3.3008236648  W2        10927           0.0000000000
     32066     10689  TIP3      H1             42.6077194280      -26.7649824159        4.0909136648  W2        10927           0.0000000000
     32067     10689  TIP3      H2             42.4580894280      -25.3382024159        3.6074136648  W2        10927           0.0000000000
     32068     10690  TIP3      OH2            38.9140294280      -28.9926324159        3.8113636648  W2        10928           0.0000000000
     32069     10690  TIP3      H1             38.2279594280      -28.6403824159        4.3783336648  W2        10928           0.0000000000
     32070     10690  TIP3      H2             39.4368194280      -28.2296724159        3.5647936648  W2        10928           0.0000000000
     32071     10691  TIP3      OH2            46.7455394280      -36.3302524159       14.0902636648  W2        10929           0.0000000000
     32072     10691  TIP3      H1             47.4443294280      -36.2563824159       14.7402336648  W2        10929           0.0000000000
     32073     10691  TIP3      H2             46.3646794280      -37.1947524159       14.2445536648  W2        10929           0.0000000000
     32074     10692  TIP3      OH2            47.5300294280      -36.6780824159        5.1874936648  W2        10930           0.0000000000
     32075     10692  TIP3      H1             47.7498594280      -36.2065424159        4.3840336648  W2        10930           0.0000000000
     32076     10692  TIP3      H2             48.0884294280      -36.2838224159        5.8575536648  W2        10930           0.0000000000
     32077     10693  TIP3      OH2            45.1986394280      -24.5476024159        4.0502436648  W2        10931           0.0000000000
     32078     10693  TIP3      H1             44.3822494280      -24.0506324159        4.1026736648  W2        10931           0.0000000000
     32079     10693  TIP3      H2             45.7282694280      -24.0722524159        3.4101236648  W2        10931           0.0000000000
     32080     10694  TIP3      OH2            44.7300194280      -34.9502024159        6.0223336648  W2        10932           0.0000000000
     32081     10694  TIP3      H1             45.5422794280      -34.4458824159        6.0685036648  W2        10932           0.0000000000
     32082     10694  TIP3      H2             44.4853194280      -35.0952324159        6.9362936648  W2        10932           0.0000000000
     32083     10695  TIP3      OH2            45.2656594280      -33.9639324159       15.2069936648  W2        10933           0.0000000000
     32084     10695  TIP3      H1             45.3846894280      -33.3903924159       15.9640336648  W2        10933           0.0000000000
     32085     10695  TIP3      H2             45.9211194280      -34.6519924159       15.3217736648  W2        10933           0.0000000000
     32086     10696  TIP3      OH2            45.6136894280      -37.8689024159        6.9604436648  W2        10934           0.0000000000
     32087     10696  TIP3      H1             45.2670394280      -37.2518424159        7.6048736648  W2        10934           0.0000000000
     32088     10696  TIP3      H2             46.2723794280      -37.3683324159        6.4789936648  W2        10934           0.0000000000
     32089     10697  TIP3      OH2            42.5369494280      -23.5038824159        4.0319336648  W2        10935           0.0000000000
     32090     10697  TIP3      H1             42.6978194280      -22.7041324159        3.5311936648  W2        10935           0.0000000000
     32091     10697  TIP3      H2             42.3397294280      -23.1972824159        4.9169936648  W2        10935           0.0000000000
     32092     10698  TIP3      OH2            41.2713894280      -36.8059624159        3.6476936648  W2        10936           0.0000000000
     32093     10698  TIP3      H1             41.1878694280      -35.9176524159        3.9943336648  W2        10936           0.0000000000
     32094     10698  TIP3      H2             42.1614194280      -37.0712924159        3.8793736648  W2        10936           0.0000000000
     32095     10699  TIP3      OH2            51.4702394280      -36.0569024159       16.0419636648  W2        10937           0.0000000000
     32096     10699  TIP3      H1             50.5538194280      -35.7947324159       15.9543336648  W2        10937           0.0000000000
     32097     10699  TIP3      H2             51.8057394280      -36.0600024159       15.1454936648  W2        10937           0.0000000000
     32098     10700  TIP3      OH2            50.0723394280      -32.3068024159       10.1376936648  W2        10938           0.0000000000
     32099     10700  TIP3      H1             49.2747794280      -32.7217824159        9.8091936648  W2        10938           0.0000000000
     32100     10700  TIP3      H2             50.5174494280      -32.9974324159       10.6287436648  W2        10938           0.0000000000
     32101     10701  TIP3      OH2            39.5299194280      -26.3787424159        2.7081436648  W2        10939           0.0000000000
     32102     10701  TIP3      H1             40.1220694280      -25.6792624159        2.9843836648  W2        10939           0.0000000000
     32103     10701  TIP3      H2             39.9892194280      -26.8117924159        1.9886036648  W2        10939           0.0000000000
     32104     10702  TIP3      OH2            37.8458394280      -33.7144424159        1.8240836648  W2        10940           0.0000000000
     32105     10702  TIP3      H1             37.8010994280      -32.7751324159        2.0027836648  W2        10940           0.0000000000
     32106     10702  TIP3      H2             36.9581594280      -33.9499524159        1.5542936648  W2        10940           0.0000000000
     32107     10703  TIP3      OH2            51.1587994280      -23.0505524159       11.7600436648  W2        10941           0.0000000000
     32108     10703  TIP3      H1             51.0032294280      -22.3721124159       11.1029736648  W2        10941           0.0000000000
     32109     10703  TIP3      H2             52.0914394280      -22.9786224159       11.9631036648  W2        10941           0.0000000000
     32110     10704  TIP3      OH2            38.6540394280      -38.9327824159       10.4971836648  W2        10942           0.0000000000
     32111     10704  TIP3      H1             38.4250194280      -38.8735324159        9.5696836648  W2        10942           0.0000000000
     32112     10704  TIP3      H2             38.2113794280      -39.7242324159       10.8035936648  W2        10942           0.0000000000
     32113     10705  TIP3      OH2            37.5843694280      -24.9920724159        6.6577636648  W2        10943           0.0000000000
     32114     10705  TIP3      H1             36.7522294280      -24.5198024159        6.6849036648  W2        10943           0.0000000000
     32115     10705  TIP3      H2             38.1301994280      -24.4823124159        6.0590736648  W2        10943           0.0000000000
     32116     10706  TIP3      OH2            45.5620394280      -23.9522024159        0.9831636648  W2        10946           0.0000000000
     32117     10706  TIP3      H1             44.9181394280      -24.5833424159        1.3045336648  W2        10946           0.0000000000
     32118     10706  TIP3      H2             46.3238694280      -24.4834024159        0.7515136648  W2        10946           0.0000000000
     32119     10707  TIP3      OH2            50.1663294280      -24.1352124159        1.2169636648  W2        10948           0.0000000000
     32120     10707  TIP3      H1             50.4493694280      -24.9296924159        1.6696536648  W2        10948           0.0000000000
     32121     10707  TIP3      H2             50.9061194280      -23.9021124159        0.6560736648  W2        10948           0.0000000000
     32122     10708  TIP3      OH2            41.1210594280      -28.2257224159        1.0744536648  W2        10950           0.0000000000
     32123     10708  TIP3      H1             41.1854694280      -29.0197624159        1.6050936648  W2        10950           0.0000000000
     32124     10708  TIP3      H2             41.7739794280      -28.3444424159        0.3846536648  W2        10950           0.0000000000
     32125     10709  TIP3      OH2            46.4733994280      -27.1785524159        0.8102536648  W2        10952           0.0000000000
     32126     10709  TIP3      H1             46.2048094280      -26.9983424159        1.7111436648  W2        10952           0.0000000000
     32127     10709  TIP3      H2             46.2669594280      -28.1039324159        0.6788336648  W2        10952           0.0000000000
     32128     10710  TIP3      OH2            49.1698194280      -28.6837524159       15.7578636648  W2        10953           0.0000000000
     32129     10710  TIP3      H1             49.9152994280      -28.0953824159       15.6382636648  W2        10953           0.0000000000
     32130     10710  TIP3      H2             48.4124994280      -28.1017824159       15.8211736648  W2        10953           0.0000000000
     32131     10711  TIP3      OH2            42.2704394280      -30.2531024159        3.3802536648  W2        10955           0.0000000000
     32132     10711  TIP3      H1             41.8106394280      -30.7372724159        4.0661036648  W2        10955           0.0000000000
     32133     10711  TIP3      H2             42.5253094280      -30.9215624159        2.7443036648  W2        10955           0.0000000000
     32134     10712  TIP3      OH2            41.5593694280      -32.3603924159       15.7362136648  W2        10956           0.0000000000
     32135     10712  TIP3      H1             40.9409794280      -31.6857324159       16.0166836648  W2        10956           0.0000000000
     32136     10712  TIP3      H2             41.9034894280      -32.0390024159       14.9028336648  W2        10956           0.0000000000
     32137     10713  TIP3      OH2            43.3414794280      -32.0099224159        1.6425736648  W2        10957           0.0000000000
     32138     10713  TIP3      H1             43.1609794280      -32.1648024159        0.7154036648  W2        10957           0.0000000000
     32139     10713  TIP3      H2             44.2915294280      -31.9020524159        1.6873636648  W2        10957           0.0000000000
     32140     10714  TIP3      OH2            52.7313094280      -29.6555024159        1.0883836648  W2        10959           0.0000000000
     32141     10714  TIP3      H1             52.4577894280      -30.0799524159        0.2752136648  W2        10959           0.0000000000
     32142     10714  TIP3      H2             52.7707194280      -28.7240524159        0.8714236648  W2        10959           0.0000000000
     32143     10715  TIP3      OH2            41.8987394280      -35.0053124159       16.8185236648  W2        10960           0.0000000000
     32144     10715  TIP3      H1             42.0488294280      -35.7341824159       16.2164936648  W2        10960           0.0000000000
     32145     10715  TIP3      H2             41.9009794280      -34.2281424159       16.2597436648  W2        10960           0.0000000000
     32146     10716  TIP3      OH2            42.3113094280      -36.6357324159       14.3112636648  W2        10961           0.0000000000
     32147     10716  TIP3      H1             42.8470594280      -36.1840624159       13.6591936648  W2        10961           0.0000000000
     32148     10716  TIP3      H2             41.4592694280      -36.7437524159       13.8886736648  W2        10961           0.0000000000
     32149     10717  TIP3      OH2            43.8931494280      -31.1961124159       14.5507836648  W2        10962           0.0000000000
     32150     10717  TIP3      H1             44.6436294280      -31.3523624159       13.9775636648  W2        10962           0.0000000000
     32151     10717  TIP3      H2             43.5539794280      -30.3444524159       14.2753336648  W2        10962           0.0000000000
     32152     10718  TIP3      OH2            49.6254894280      -30.5924124159       17.6565836648  W2        10964           0.0000000000
     32153     10718  TIP3      H1             49.3439894280      -29.8829524159       17.0789636648  W2        10964           0.0000000000
     32154     10718  TIP3      H2             50.5679194280      -30.6651124159       17.5057036648  W2        10964           0.0000000000
     32155     10719  TIP3      OH2            43.1168594280      -39.1791624159       14.7426236648  W2        10966           0.0000000000
     32156     10719  TIP3      H1             43.0188194280      -38.2328424159       14.6372436648  W2        10966           0.0000000000
     32157     10719  TIP3      H2             42.3744794280      -39.5517824159       14.2669736648  W2        10966           0.0000000000
     32158     10720  TIP3      OH2            47.0965694280      -35.7302724159       17.3818136648  W2        10968           0.0000000000
     32159     10720  TIP3      H1             46.1491094280      -35.6983024159       17.5141436648  W2        10968           0.0000000000
     32160     10720  TIP3      H2             47.4092394280      -36.3555624159       18.0356336648  W2        10968           0.0000000000
     32161     10721  TIP3      OH2            43.3386694280      -39.8854224159       17.4139036648  W2        10971           0.0000000000
     32162     10721  TIP3      H1             44.0505094280      -40.5252024159       17.3998136648  W2        10971           0.0000000000
     32163     10721  TIP3      H2             43.2377094280      -39.6185924159       16.5002136648  W2        10971           0.0000000000
     32164     10722  TIP3      OH2            43.2386494280      -21.3195524159        2.6439336648  W2        10973           0.0000000000
     32165     10722  TIP3      H1             44.1717194280      -21.1616824159        2.7877736648  W2        10973           0.0000000000
     32166     10722  TIP3      H2             42.9745294280      -20.6442524159        2.0190836648  W2        10973           0.0000000000
     32167     10723  TIP3      OH2            36.8071394280      -26.6831724159        2.1267436648  W2        10974           0.0000000000
     32168     10723  TIP3      H1             37.7210594280      -26.6042824159        2.4001336648  W2        10974           0.0000000000
     32169     10723  TIP3      H2             36.8144494280      -27.3702124159        1.4603036648  W2        10974           0.0000000000
     32170     10724  TIP3      OH2            35.4561994280      -21.2903224159        7.2041336648  W2        10975           0.0000000000
     32171     10724  TIP3      H1             34.8089094280      -21.7521524159        6.6712536648  W2        10975           0.0000000000
     32172     10724  TIP3      H2             35.8106594280      -21.9619924159        7.7867536648  W2        10975           0.0000000000
     32173     10725  TIP3      OH2            36.3261194280      -23.2096224159        9.0087536648  W2        10976           0.0000000000
     32174     10725  TIP3      H1             35.9917994280      -24.0898924159        9.1807736648  W2        10976           0.0000000000
     32175     10725  TIP3      H2             36.5483594280      -22.8641224159        9.8733136648  W2        10976           0.0000000000
     32176     10726  TIP3      OH2            53.8745994280      -22.3999824159       11.9892336648  W2        10977           0.0000000000
     32177     10726  TIP3      H1             53.8532694280      -22.2151424159       12.9281736648  W2        10977           0.0000000000
     32178     10726  TIP3      H2             54.5652194280      -21.8315824159       11.6483736648  W2        10977           0.0000000000
     32179     10727  TIP3      OH2            53.4378894280      -22.8328724159       14.9111436648  W2        10978           0.0000000000
     32180     10727  TIP3      H1             52.9507594280      -23.5684624159       14.5398836648  W2        10978           0.0000000000
     32181     10727  TIP3      H2             53.9871594280      -23.2264824159       15.5890836648  W2        10978           0.0000000000
     32182     10728  TIP3      OH2            53.1895894280      -28.7866924159        5.0634236648  W2        10980           0.0000000000
     32183     10728  TIP3      H1             54.0397294280      -28.3656024159        5.1905836648  W2        10980           0.0000000000
     32184     10728  TIP3      H2             53.1950994280      -29.5266824159        5.6705636648  W2        10980           0.0000000000
     32185     10729  TIP3      OH2            53.5841494280      -30.7329524159        6.8869936648  W2        10981           0.0000000000
     32186     10729  TIP3      H1             52.8576094280      -31.2126924159        7.2847536648  W2        10981           0.0000000000
     32187     10729  TIP3      H2             54.1654794280      -30.5274824159        7.6191536648  W2        10981           0.0000000000
     32188     10730  TIP3      OH2            53.3432694280      -27.9482024159       11.8347536648  W2        10982           0.0000000000
     32189     10730  TIP3      H1             54.1766894280      -28.3262024159       11.5541136648  W2        10982           0.0000000000
     32190     10730  TIP3      H2             53.4552994280      -27.0050824159       11.7156636648  W2        10982           0.0000000000
     32191     10731  TIP3      OH2            51.8294994280      -25.0704524159       14.1415936648  W2        10983           0.0000000000
     32192     10731  TIP3      H1             51.1820294280      -24.7453024159       14.7671136648  W2        10983           0.0000000000
     32193     10731  TIP3      H2             51.3118994280      -25.5106824159       13.4674236648  W2        10983           0.0000000000
     32194     10732  TIP3      OH2            53.8524594280      -30.8321024159        3.2781236648  W2        10984           0.0000000000
     32195     10732  TIP3      H1             53.3305694280      -30.4756924159        2.5592136648  W2        10984           0.0000000000
     32196     10732  TIP3      H2             53.8193794280      -30.1573224159        3.9562136648  W2        10984           0.0000000000
     32197     10733  TIP3      OH2            52.2013594280      -33.5925424159        1.8288336648  W2        10985           0.0000000000
     32198     10733  TIP3      H1             52.2977994280      -32.9258424159        1.1488036648  W2        10985           0.0000000000
     32199     10733  TIP3      H2             52.0613194280      -34.4079124159        1.3473836648  W2        10985           0.0000000000
     32200     10734  TIP3      OH2            51.3708294280      -32.2123024159        7.4498636648  W2        10986           0.0000000000
     32201     10734  TIP3      H1             51.2207094280      -33.1574424159        7.4296436648  W2        10986           0.0000000000
     32202     10734  TIP3      H2             51.0172794280      -31.9311624159        8.2937736648  W2        10986           0.0000000000
     32203     10735  TIP3      OH2            36.4060694280      -30.1340824159       11.4602436648  W2        10987           0.0000000000
     32204     10735  TIP3      H1             36.5903594280      -30.2159124159       10.5245336648  W2        10987           0.0000000000
     32205     10735  TIP3      H2             37.2553594280      -30.2583824159       11.8838836648  W2        10987           0.0000000000
     32206     10736  TIP3      OH2            52.2271194280      -30.2419724159       17.0886936648  W2        10988           0.0000000000
     32207     10736  TIP3      H1             52.8098494280      -30.9767424159       17.2804136648  W2        10988           0.0000000000
     32208     10736  TIP3      H2             52.7910494280      -29.4699424159       17.1352736648  W2        10988           0.0000000000
     32209     10737  TIP3      OH2            53.7238294280      -32.3393924159       17.7732336648  W2        10989           0.0000000000
     32210     10737  TIP3      H1             52.8604994280      -32.7181824159       17.6077036648  W2        10989           0.0000000000
     32211     10737  TIP3      H2             54.3281994280      -33.0779124159       17.6988136648  W2        10989           0.0000000000
     32212     10738  TIP3      OH2            51.4487394280      -36.1845624159        0.9463836648  W2        10990           0.0000000000
     32213     10738  TIP3      H1             52.0593194280      -36.5558824159        1.5832036648  W2        10990           0.0000000000
     32214     10738  TIP3      H2             50.6118894280      -36.6058724159        1.1423836648  W2        10990           0.0000000000
     32215     10739  TIP3      OH2            51.0813094280      -34.6297224159        5.9123736648  W2        10991           0.0000000000
     32216     10739  TIP3      H1             51.3610194280      -35.5366824159        6.0365436648  W2        10991           0.0000000000
     32217     10739  TIP3      H2             51.8404794280      -34.1955724159        5.5232936648  W2        10991           0.0000000000
     32218     10740  TIP3      OH2            51.6931394280      -34.0479824159       11.3482636648  W2        10992           0.0000000000
     32219     10740  TIP3      H1             52.6259394280      -33.8359924159       11.3138636648  W2        10992           0.0000000000
     32220     10740  TIP3      H2             51.4578894280      -33.9467724159       12.2705636648  W2        10992           0.0000000000
     32221     10741  TIP3      OH2            51.7223294280      -33.3114524159       14.1242036648  W2        10993           0.0000000000
     32222     10741  TIP3      H1             50.8794594280      -33.0434124159       14.4901836648  W2        10993           0.0000000000
     32223     10741  TIP3      H2             52.1647594280      -32.4892624159       13.9133136648  W2        10993           0.0000000000
     32224     10742  TIP3      OH2            36.0035494280      -34.8635824159       17.6011236648  W2        10994           0.0000000000
     32225     10742  TIP3      H1             36.9230394280      -34.9857524159       17.8374336648  W2        10994           0.0000000000
     32226     10742  TIP3      H2             35.5539994280      -35.6136124159       17.9904736648  W2        10994           0.0000000000
     32227     10743  TIP3      OH2            51.6947894280      -37.3667924159        5.9605736648  W2        10996           0.0000000000
     32228     10743  TIP3      H1             51.8772894280      -37.8156424159        6.7860736648  W2        10996           0.0000000000
     32229     10743  TIP3      H2             51.0950794280      -37.9513524159        5.4970336648  W2        10996           0.0000000000
     32230     10744  TIP3      OH2            37.2247994280      -36.5514224159       10.4924136648  W2        10997           0.0000000000
     32231     10744  TIP3      H1             37.6699594280      -37.3431724159       10.7943836648  W2        10997           0.0000000000
     32232     10744  TIP3      H2             37.6910994280      -35.8349024159       10.9229736648  W2        10997           0.0000000000
     32233     10745  TIP3      OH2            35.5288294280      -33.5521224159       11.5614336648  W2        10998           0.0000000000
     32234     10745  TIP3      H1             36.0208094280      -33.7730724159       10.7706336648  W2        10998           0.0000000000
     32235     10745  TIP3      H2             35.8909194280      -32.7117824159       11.8423836648  W2        10998           0.0000000000
     32236     10746  TIP3      OH2            53.5614094280      -37.2989824159        2.4886036648  W2        11000           0.0000000000
     32237     10746  TIP3      H1             53.9736694280      -38.0204124159        2.0134036648  W2        11000           0.0000000000
     32238     10746  TIP3      H2             54.2430594280      -36.6295224159        2.5470336648  W2        11000           0.0000000000
     32239     10747  TIP3      OH2            35.8424794280      -37.2942124159        5.6156736648  W2        11001           0.0000000000
     32240     10747  TIP3      H1             34.9173194280      -37.0855524159        5.4862236648  W2        11001           0.0000000000
     32241     10747  TIP3      H2             36.2964694280      -36.8101324159        4.9259036648  W2        11001           0.0000000000
     32242     10748  TIP3      OH2            50.6131994280      -22.3100424159        7.5614136648  W2        11002           0.0000000000
     32243     10748  TIP3      H1             51.2654894280      -22.6578324159        6.9533236648  W2        11002           0.0000000000
     32244     10748  TIP3      H2             51.1235794280      -21.8217224159        8.2073836648  W2        11002           0.0000000000
     32245     10749  TIP3      OH2            35.8060194280      -38.5563124159       13.9599236648  W2        11003           0.0000000000
     32246     10749  TIP3      H1             35.1410694280      -38.8022824159       14.6030136648  W2        11003           0.0000000000
     32247     10749  TIP3      H2             35.3631494280      -37.9342724159       13.3827236648  W2        11003           0.0000000000
     32248     10750  TIP3      OH2            40.9522394280      -24.4067824159       14.3629036648  W2        11005           0.0000000000
     32249     10750  TIP3      H1             40.5273494280      -23.5969324159       14.0803636648  W2        11005           0.0000000000
     32250     10750  TIP3      H2             41.8565194280      -24.3213724159       14.0608836648  W2        11005           0.0000000000
     32251     10751  TIP3      OH2            45.2633794280      -23.0077824159       17.3222736648  W2        11006           0.0000000000
     32252     10751  TIP3      H1             45.4481294280      -23.3411724159       18.2003036648  W2        11006           0.0000000000
     32253     10751  TIP3      H2             46.1098294280      -22.6979224159       17.0001936648  W2        11006           0.0000000000
     32254     10752  TIP3      OH2            47.6084194280      -21.7218924159       16.5664136648  W2        11007           0.0000000000
     32255     10752  TIP3      H1             48.2853094280      -22.3546624159       16.3263336648  W2        11007           0.0000000000
     32256     10752  TIP3      H2             47.9302994280      -21.3208424159       17.3737436648  W2        11007           0.0000000000
     32257     10753  TIP3      OH2            52.5257994280      -39.1323424159       15.6459136648  W2        11008           0.0000000000
     32258     10753  TIP3      H1             51.7131494280      -38.8073124159       15.2583836648  W2        11008           0.0000000000
     32259     10753  TIP3      H2             52.7586494280      -39.8924924159       15.1128236648  W2        11008           0.0000000000
     32260     10754  TIP3      OH2            38.3539094280      -21.1503924159       14.4104336648  W2        11009           0.0000000000
     32261     10754  TIP3      H1             37.6335494280      -20.7102924159       13.9592036648  W2        11009           0.0000000000
     32262     10754  TIP3      H2             37.9883094280      -21.4009224159       15.2588336648  W2        11009           0.0000000000
     32263     10755  TIP3      OH2            40.8211694280      -21.5500024159       13.4401536648  W2        11010           0.0000000000
     32264     10755  TIP3      H1             39.9563894280      -21.4781524159       13.8441636648  W2        11010           0.0000000000
     32265     10755  TIP3      H2             40.7660694280      -21.0032724159       12.6564036648  W2        11010           0.0000000000
     32266     10756  TIP3      OH2            45.5317294280      -21.6621124159       12.6157536648  W2        11011           0.0000000000
     32267     10756  TIP3      H1             45.0751294280      -21.1331424159       11.9615936648  W2        11011           0.0000000000
     32268     10756  TIP3      H2             45.6945294280      -21.0589724159       13.3409836648  W2        11011           0.0000000000
     32269     10757  TIP3      OH2            47.8593594280      -22.7841524159       13.5607836648  W2        11012           0.0000000000
     32270     10757  TIP3      H1             46.9547294280      -22.6191324159       13.2949936648  W2        11012           0.0000000000
     32271     10757  TIP3      H2             48.2882194280      -21.9309324159       13.4951236648  W2        11012           0.0000000000
     32272     10758  TIP3      OH2            50.4635494280      -21.2142424159       13.8555636648  W2        11013           0.0000000000
     32273     10758  TIP3      H1             50.2817494280      -20.2983524159       13.6450536648  W2        11013           0.0000000000
     32274     10758  TIP3      H2             50.6403294280      -21.6245324159       13.0090236648  W2        11013           0.0000000000
     32275     10759  TIP3      OH2            37.7687194280      -22.5271424159       11.3206136648  W2        11014           0.0000000000
     32276     10759  TIP3      H1             37.7503194280      -22.9526324159       12.1778436648  W2        11014           0.0000000000
     32277     10759  TIP3      H2             38.5735094280      -22.8456424159       10.9118336648  W2        11014           0.0000000000
     32278     10760  TIP3      OH2            39.9100294280      -23.8172724159        9.9756036648  W2        11015           0.0000000000
     32279     10760  TIP3      H1             39.6910994280      -24.7335324159       10.1452036648  W2        11015           0.0000000000
     32280     10760  TIP3      H2             40.7342494280      -23.6772324159       10.4417436648  W2        11015           0.0000000000
     32281     10761  TIP3      OH2            42.4472794280      -23.3473424159       10.8244036648  W2        11016           0.0000000000
     32282     10761  TIP3      H1             42.6598494280      -24.2354424159       10.5374936648  W2        11016           0.0000000000
     32283     10761  TIP3      H2             42.5117894280      -23.3815724159       11.7788036648  W2        11016           0.0000000000
     32284     10762  TIP3      OH2            45.9556494280      -37.6832824159        9.9687336648  W2        11017           0.0000000000
     32285     10762  TIP3      H1             45.2813294280      -38.3127224159       10.2243136648  W2        11017           0.0000000000
     32286     10762  TIP3      H2             46.5195694280      -38.1673924159        9.3655236648  W2        11017           0.0000000000
     32287     10763  TIP3      OH2            51.0983694280      -39.5758824159       10.0814436648  W2        11018           0.0000000000
     32288     10763  TIP3      H1             51.7021294280      -39.0283424159        9.5795436648  W2        11018           0.0000000000
     32289     10763  TIP3      H2             50.2285694280      -39.2568424159        9.8408536648  W2        11018           0.0000000000
     32290     10764  TIP3      OH2            52.8254094280      -38.4370124159        8.4145336648  W2        11019           0.0000000000
     32291     10764  TIP3      H1             53.4371594280      -38.9514424159        7.8878936648  W2        11019           0.0000000000
     32292     10764  TIP3      H2             53.2077494280      -37.5598024159        8.4379736648  W2        11019           0.0000000000
     32293     10765  TIP3      OH2            38.2823994280      -39.0492524159        7.7907236648  W2        11020           0.0000000000
     32294     10765  TIP3      H1             37.5053794280      -39.2837624159        7.2833136648  W2        11020           0.0000000000
     32295     10765  TIP3      H2             38.8127594280      -39.8460424159        7.7995236648  W2        11020           0.0000000000
     32296     10766  TIP3      OH2            37.1187394280      -39.2514424159        3.5943336648  W2        11021           0.0000000000
     32297     10766  TIP3      H1             37.5578094280      -38.6403924159        3.0026836648  W2        11021           0.0000000000
     32298     10766  TIP3      H2             36.4849794280      -38.7130324159        4.0683336648  W2        11021           0.0000000000
     32299     10767  TIP3      OH2            42.8616594280      -39.1225424159        7.6040336648  W2        11022           0.0000000000
     32300     10767  TIP3      H1             43.7359994280      -38.7341124159        7.5744636648  W2        11022           0.0000000000
     32301     10767  TIP3      H2             42.7257394280      -39.3377624159        8.5267536648  W2        11022           0.0000000000
     32302     10768  TIP3      OH2            48.4184994280      -39.0925624159        9.2532036648  W2        11023           0.0000000000
     32303     10768  TIP3      H1             48.4946594280      -38.9974024159        8.3038036648  W2        11023           0.0000000000
     32304     10768  TIP3      H2             48.1434194280      -40.0002724159        9.3821136648  W2        11023           0.0000000000
     32305     10769  TIP3      OH2            49.7717594280      -39.0667824159        4.9457036648  W2        11024           0.0000000000
     32306     10769  TIP3      H1             49.0688694280      -38.4518624159        4.7358436648  W2        11024           0.0000000000
     32307     10769  TIP3      H2             49.3268994280      -39.9041124159        5.0767936648  W2        11024           0.0000000000
     32308     10770  TIP3      OH2            37.0196894280      -23.3032224159        4.4918436648  W2        11025           0.0000000000
     32309     10770  TIP3      H1             36.3346794280      -23.3413324159        3.8243536648  W2        11025           0.0000000000
     32310     10770  TIP3      H2             37.0234094280      -22.3904624159        4.7800536648  W2        11025           0.0000000000
     32311     10771  TIP3      OH2            38.9796494280      -37.3352924159        2.0367436648  W2        11026           0.0000000000
     32312     10771  TIP3      H1             39.4709894280      -37.9650524159        1.5092936648  W2        11026           0.0000000000
     32313     10771  TIP3      H2             39.6032794280      -37.0393524159        2.6998636648  W2        11026           0.0000000000
     32314     10772  TIP3      OH2            44.0056594280      -37.0421424159        4.4937936648  W2        11027           0.0000000000
     32315     10772  TIP3      H1             44.1837894280      -37.6888224159        5.1766536648  W2        11027           0.0000000000
     32316     10772  TIP3      H2             43.9522794280      -36.2083724159        4.9609036648  W2        11027           0.0000000000
     32317     10773  TIP3      OH2            45.8840394280      -22.0937324159        2.8894636648  W2        11028           0.0000000000
     32318     10773  TIP3      H1             46.7500594280      -21.7269924159        2.7112836648  W2        11028           0.0000000000
     32319     10773  TIP3      H2             45.6373194280      -22.5329324159        2.0755436648  W2        11028           0.0000000000
     32320     10774  TIP3      OH2            52.5929994280      -22.5307024159        5.5685736648  W2        11029           0.0000000000
     32321     10774  TIP3      H1             52.3987094280      -23.2784924159        5.0035336648  W2        11029           0.0000000000
     32322     10774  TIP3      H2             52.5540094280      -21.7726924159        4.9853636648  W2        11029           0.0000000000
     32323     10775  TIP3      OH2            38.2401994280      -38.5350624159       17.3083436648  W2        11030           0.0000000000
     32324     10775  TIP3      H1             37.8740194280      -39.3008024159       17.7508136648  W2        11030           0.0000000000
     32325     10775  TIP3      H2             39.1530494280      -38.5060424159       17.5948536648  W2        11030           0.0000000000
     32326     10776  TIP3      OH2            38.8378094280      -22.3831424159        1.5170536648  W2        11032           0.0000000000
     32327     10776  TIP3      H1             38.5702694280      -22.0968524159        2.3903636648  W2        11032           0.0000000000
     32328     10776  TIP3      H2             39.6090694280      -22.9292224159        1.6693036648  W2        11032           0.0000000000
     32329     10777  TIP3      OH2            51.8106194280      -23.7794624159       17.7187536648  W2        11034           0.0000000000
     32330     10777  TIP3      H1             51.0288094280      -23.9656624159       17.1988136648  W2        11034           0.0000000000
     32331     10777  TIP3      H2             51.7386094280      -22.8500324159       17.9360036648  W2        11034           0.0000000000
     32332     10778  TIP3      OH2            57.5182894280      -31.0237424159       12.7612836648  W2        11035           0.0000000000
     32333     10778  TIP3      H1             57.5594994280      -31.6494124159       13.4845236648  W2        11035           0.0000000000
     32334     10778  TIP3      H2             58.2210594280      -30.3998824159       12.9433236648  W2        11035           0.0000000000
     32335     10779  TIP3      OH2            58.4415994280      -26.5738524159       11.2961936648  W2        11036           0.0000000000
     32336     10779  TIP3      H1             58.0721194280      -27.3758024159       10.9266236648  W2        11036           0.0000000000
     32337     10779  TIP3      H2             59.3827094280      -26.7423624159       11.3425336648  W2        11036           0.0000000000
     32338     10780  TIP3      OH2            55.0516494280      -32.9135924159        6.6890736648  W2        11037           0.0000000000
     32339     10780  TIP3      H1             54.6039894280      -32.0677224159        6.6707236648  W2        11037           0.0000000000
     32340     10780  TIP3      H2             54.4907694280      -33.4931724159        6.1735836648  W2        11037           0.0000000000
     32341     10781  TIP3      OH2            55.7622594280      -30.7516324159        8.8148736648  W2        11038           0.0000000000
     32342     10781  TIP3      H1             55.9756094280      -31.5214724159        9.3421736648  W2        11038           0.0000000000
     32343     10781  TIP3      H2             56.5000194280      -30.6619624159        8.2116336648  W2        11038           0.0000000000
     32344     10782  TIP3      OH2            56.4549094280      -33.3133524159        9.9364936648  W2        11039           0.0000000000
     32345     10782  TIP3      H1             57.1085694280      -33.8631824159       10.3685036648  W2        11039           0.0000000000
     32346     10782  TIP3      H2             56.4788394280      -33.5874524159        9.0196936648  W2        11039           0.0000000000
     32347     10783  TIP3      OH2            58.2386794280      -34.8999124159       11.2006536648  W2        11040           0.0000000000
     32348     10783  TIP3      H1             58.8523094280      -34.2671524159       11.5738936648  W2        11040           0.0000000000
     32349     10783  TIP3      H2             58.7507494280      -35.3724124159       10.5443436648  W2        11040           0.0000000000
     32350     10784  TIP3      OH2            55.7426094280      -27.4814324159        5.1048836648  W2        11041           0.0000000000
     32351     10784  TIP3      H1             55.4706994280      -27.2523324159        4.2161736648  W2        11041           0.0000000000
     32352     10784  TIP3      H2             55.7881794280      -26.6435524159        5.5654136648  W2        11041           0.0000000000
     32353     10785  TIP3      OH2            58.1556594280      -30.4431324159       15.6148536648  W2        11042           0.0000000000
     32354     10785  TIP3      H1             58.2259794280      -29.7924524159       16.3133536648  W2        11042           0.0000000000
     32355     10785  TIP3      H2             57.2648794280      -30.3403824159       15.2799436648  W2        11042           0.0000000000
     32356     10786  TIP3      OH2            55.0723294280      -28.3767224159       14.4398536648  W2        11043           0.0000000000
     32357     10786  TIP3      H1             54.5711694280      -28.4047824159       13.6248236648  W2        11043           0.0000000000
     32358     10786  TIP3      H2             55.0776994280      -29.2824024159       14.7495836648  W2        11043           0.0000000000
     32359     10787  TIP3      OH2            54.8225994280      -25.5963424159       11.3238736648  W2        11044           0.0000000000
     32360     10787  TIP3      H1             55.7686594280      -25.7406424159       11.3048236648  W2        11044           0.0000000000
     32361     10787  TIP3      H2             54.7102294280      -24.8120624159       11.8609936648  W2        11044           0.0000000000
     32362     10788  TIP3      OH2            58.0668094280      -22.7953824159        7.4693436648  W2        11045           0.0000000000
     32363     10788  TIP3      H1             58.2188494280      -23.1433424159        8.3479936648  W2        11045           0.0000000000
     32364     10788  TIP3      H2             57.2158494280      -23.1516524159        7.2140636648  W2        11045           0.0000000000
     32365     10789  TIP3      OH2            57.3213794280      -27.0531824159       15.4831336648  W2        11046           0.0000000000
     32366     10789  TIP3      H1             57.5375094280      -27.4146224159       16.3427136648  W2        11046           0.0000000000
     32367     10789  TIP3      H2             56.4658494280      -27.4278024159       15.2734836648  W2        11046           0.0000000000
     32368     10790  TIP3      OH2            57.7812394280      -33.2973324159       14.4407736648  W2        11047           0.0000000000
     32369     10790  TIP3      H1             57.7431794280      -32.8971724159       15.3094836648  W2        11047           0.0000000000
     32370     10790  TIP3      H2             57.2903494280      -34.1140924159       14.5310636648  W2        11047           0.0000000000
     32371     10791  TIP3      OH2            54.3893194280      -36.1811524159        8.2912436648  W2        11048           0.0000000000
     32372     10791  TIP3      H1             55.0200894280      -36.2099424159        9.0106336648  W2        11048           0.0000000000
     32373     10791  TIP3      H2             54.8387494280      -36.6062824159        7.5608336648  W2        11048           0.0000000000
     32374     10792  TIP3      OH2            55.6635294280      -35.4349524159        3.7152836648  W2        11049           0.0000000000
     32375     10792  TIP3      H1             56.1376994280      -34.8439624159        3.1303736648  W2        11049           0.0000000000
     32376     10792  TIP3      H2             54.9461694280      -34.9046624159        4.0622936648  W2        11049           0.0000000000
     32377     10793  TIP3      OH2            57.4379694280      -34.3402924159        7.3987436648  W2        11050           0.0000000000
     32378     10793  TIP3      H1             56.5487694280      -34.2407424159        7.0587036648  W2        11050           0.0000000000
     32379     10793  TIP3      H2             57.7344594280      -35.1819924159        7.0525336648  W2        11050           0.0000000000
     32380     10794  TIP3      OH2            57.9003094280      -28.5886224159       17.7209736648  W2        11051           0.0000000000
     32381     10794  TIP3      H1             58.6325494280      -28.3340324159       18.2824236648  W2        11051           0.0000000000
     32382     10794  TIP3      H2             57.1201794280      -28.3840824159       18.2365136648  W2        11051           0.0000000000
     32383     10795  TIP3      OH2            58.2252794280      -29.2852424159       10.3274136648  W2        11052           0.0000000000
     32384     10795  TIP3      H1             58.9699994280      -29.2876724159        9.7260636648  W2        11052           0.0000000000
     32385     10795  TIP3      H2             58.3029394280      -30.1088624159       10.8089236648  W2        11052           0.0000000000
     32386     10796  TIP3      OH2            55.2332494280      -30.8245524159       15.6422636648  W2        11053           0.0000000000
     32387     10796  TIP3      H1             55.4561094280      -31.2425924159       16.4740136648  W2        11053           0.0000000000
     32388     10796  TIP3      H2             54.6312594280      -31.4370524159       15.2195436648  W2        11053           0.0000000000
     32389     10797  TIP3      OH2            56.3549894280      -30.9050124159        2.3188036648  W2        11054           0.0000000000
     32390     10797  TIP3      H1             56.9709794280      -30.2782924159        2.6982836648  W2        11054           0.0000000000
     32391     10797  TIP3      H2             55.4932494280      -30.5890324159        2.5904536648  W2        11054           0.0000000000
     32392     10798  TIP3      OH2            56.8671994280      -36.0712824159       15.2004036648  W2        11055           0.0000000000
     32393     10798  TIP3      H1             55.9744294280      -35.7327424159       15.1328036648  W2        11055           0.0000000000
     32394     10798  TIP3      H2             56.7684794280      -36.9266724159       15.6184836648  W2        11055           0.0000000000
     32395     10799  TIP3      OH2            56.5183994280      -24.2668424159       13.6353436648  W2        11056           0.0000000000
     32396     10799  TIP3      H1             56.7354294280      -25.1986024159       13.6043136648  W2        11056           0.0000000000
     32397     10799  TIP3      H2             56.7647494280      -23.9923424159       14.5186236648  W2        11056           0.0000000000
     32398     10800  TIP3      OH2            57.7700294280      -28.9926324159        3.8113636648  W2        11057           0.0000000000
     32399     10800  TIP3      H1             57.0839594280      -28.6403824159        4.3783336648  W2        11057           0.0000000000
     32400     10800  TIP3      H2             58.2928194280      -28.2296724159        3.5647936648  W2        11057           0.0000000000
     32401     10801  TIP3      OH2            58.3859194280      -26.3787424159        2.7081436648  W2        11058           0.0000000000
     32402     10801  TIP3      H1             58.9780694280      -25.6792624159        2.9843836648  W2        11058           0.0000000000
     32403     10801  TIP3      H2             58.8452194280      -26.8117924159        1.9886036648  W2        11058           0.0000000000
     32404     10802  TIP3      OH2            56.7018394280      -33.7144424159        1.8240836648  W2        11059           0.0000000000
     32405     10802  TIP3      H1             56.6570994280      -32.7751324159        2.0027836648  W2        11059           0.0000000000
     32406     10802  TIP3      H2             55.8141594280      -33.9499524159        1.5542936648  W2        11059           0.0000000000
     32407     10803  TIP3      OH2            57.5100394280      -38.9327824159       10.4971836648  W2        11060           0.0000000000
     32408     10803  TIP3      H1             57.2810194280      -38.8735324159        9.5696836648  W2        11060           0.0000000000
     32409     10803  TIP3      H2             57.0673794280      -39.7242324159       10.8035936648  W2        11060           0.0000000000
     32410     10804  TIP3      OH2            56.4403694280      -24.9920724159        6.6577636648  W2        11061           0.0000000000
     32411     10804  TIP3      H1             55.6082294280      -24.5198024159        6.6849036648  W2        11061           0.0000000000
     32412     10804  TIP3      H2             56.9861994280      -24.4823124159        6.0590736648  W2        11061           0.0000000000
     32413     10805  TIP3      OH2            55.6631394280      -26.6831724159        2.1267436648  W2        11066           0.0000000000
     32414     10805  TIP3      H1             56.5770594280      -26.6042824159        2.4001336648  W2        11066           0.0000000000
     32415     10805  TIP3      H2             55.6704494280      -27.3702124159        1.4603036648  W2        11066           0.0000000000
     32416     10806  TIP3      OH2            54.3121994280      -21.2903224159        7.2041336648  W2        11067           0.0000000000
     32417     10806  TIP3      H1             53.6649094280      -21.7521524159        6.6712536648  W2        11067           0.0000000000
     32418     10806  TIP3      H2             54.6666594280      -21.9619924159        7.7867536648  W2        11067           0.0000000000
     32419     10807  TIP3      OH2            55.1821194280      -23.2096224159        9.0087536648  W2        11068           0.0000000000
     32420     10807  TIP3      H1             54.8477994280      -24.0898924159        9.1807736648  W2        11068           0.0000000000
     32421     10807  TIP3      H2             55.4043594280      -22.8641224159        9.8733136648  W2        11068           0.0000000000
     32422     10808  TIP3      OH2            55.2620694280      -30.1340824159       11.4602436648  W2        11069           0.0000000000
     32423     10808  TIP3      H1             55.4463594280      -30.2159124159       10.5245336648  W2        11069           0.0000000000
     32424     10808  TIP3      H2             56.1113594280      -30.2583824159       11.8838836648  W2        11069           0.0000000000
     32425     10809  TIP3      OH2            54.8595494280      -34.8635824159       17.6011236648  W2        11070           0.0000000000
     32426     10809  TIP3      H1             55.7790394280      -34.9857524159       17.8374336648  W2        11070           0.0000000000
     32427     10809  TIP3      H2             54.4099994280      -35.6136124159       17.9904736648  W2        11070           0.0000000000
     32428     10810  TIP3      OH2            56.0807994280      -36.5514224159       10.4924136648  W2        11071           0.0000000000
     32429     10810  TIP3      H1             56.5259594280      -37.3431724159       10.7943836648  W2        11071           0.0000000000
     32430     10810  TIP3      H2             56.5470994280      -35.8349024159       10.9229736648  W2        11071           0.0000000000
     32431     10811  TIP3      OH2            54.3848294280      -33.5521224159       11.5614336648  W2        11072           0.0000000000
     32432     10811  TIP3      H1             54.8768094280      -33.7730724159       10.7706336648  W2        11072           0.0000000000
     32433     10811  TIP3      H2             54.7469194280      -32.7117824159       11.8423836648  W2        11072           0.0000000000
     32434     10812  TIP3      OH2            54.6984794280      -37.2942124159        5.6156736648  W2        11073           0.0000000000
     32435     10812  TIP3      H1             53.7733194280      -37.0855524159        5.4862236648  W2        11073           0.0000000000
     32436     10812  TIP3      H2             55.1524694280      -36.8101324159        4.9259036648  W2        11073           0.0000000000
     32437     10813  TIP3      OH2            54.6620194280      -38.5563124159       13.9599236648  W2        11074           0.0000000000
     32438     10813  TIP3      H1             53.9970694280      -38.8022824159       14.6030136648  W2        11074           0.0000000000
     32439     10813  TIP3      H2             54.2191494280      -37.9342724159       13.3827236648  W2        11074           0.0000000000
     32440     10814  TIP3      OH2            57.2099094280      -21.1503924159       14.4104336648  W2        11076           0.0000000000
     32441     10814  TIP3      H1             56.4895494280      -20.7102924159       13.9592036648  W2        11076           0.0000000000
     32442     10814  TIP3      H2             56.8443094280      -21.4009224159       15.2588336648  W2        11076           0.0000000000
     32443     10815  TIP3      OH2            56.6247194280      -22.5271424159       11.3206136648  W2        11077           0.0000000000
     32444     10815  TIP3      H1             56.6063194280      -22.9526324159       12.1778436648  W2        11077           0.0000000000
     32445     10815  TIP3      H2             57.4295094280      -22.8456424159       10.9118336648  W2        11077           0.0000000000
     32446     10816  TIP3      OH2            57.1383994280      -39.0492524159        7.7907236648  W2        11078           0.0000000000
     32447     10816  TIP3      H1             56.3613794280      -39.2837624159        7.2833136648  W2        11078           0.0000000000
     32448     10816  TIP3      H2             57.6687594280      -39.8460424159        7.7995236648  W2        11078           0.0000000000
     32449     10817  TIP3      OH2            55.9747394280      -39.2514424159        3.5943336648  W2        11079           0.0000000000
     32450     10817  TIP3      H1             56.4138094280      -38.6403924159        3.0026836648  W2        11079           0.0000000000
     32451     10817  TIP3      H2             55.3409794280      -38.7130324159        4.0683336648  W2        11079           0.0000000000
     32452     10818  TIP3      OH2            55.8756894280      -23.3032224159        4.4918436648  W2        11080           0.0000000000
     32453     10818  TIP3      H1             55.1906794280      -23.3413324159        3.8243536648  W2        11080           0.0000000000
     32454     10818  TIP3      H2             55.8794094280      -22.3904624159        4.7800536648  W2        11080           0.0000000000
     32455     10819  TIP3      OH2            57.8356494280      -37.3352924159        2.0367436648  W2        11081           0.0000000000
     32456     10819  TIP3      H1             58.3269894280      -37.9650524159        1.5092936648  W2        11081           0.0000000000
     32457     10819  TIP3      H2             58.4592794280      -37.0393524159        2.6998636648  W2        11081           0.0000000000
     32458     10820  TIP3      OH2            57.0961994280      -38.5350624159       17.3083436648  W2        11082           0.0000000000
     32459     10820  TIP3      H1             56.7300194280      -39.3008024159       17.7508136648  W2        11082           0.0000000000
     32460     10820  TIP3      H2             58.0090494280      -38.5060424159       17.5948536648  W2        11082           0.0000000000
     32461     10821  TIP3      OH2            57.6938094280      -22.3831424159        1.5170536648  W2        11083           0.0000000000
     32462     10821  TIP3      H1             57.4262694280      -22.0968524159        2.3903636648  W2        11083           0.0000000000
     32463     10821  TIP3      H2             58.4650694280      -22.9292224159        1.6693036648  W2        11083           0.0000000000
     32464     10822  TIP3      OH2           -46.9193405720      -11.0370224159        7.7494736648  W2        11084           0.0000000000
     32465     10822  TIP3      H1            -46.8302305720      -10.0932024159        7.6171836648  W2        11084           0.0000000000
     32466     10822  TIP3      H2            -47.5575805720      -11.3123824159        7.0914136648  W2        11084           0.0000000000
     32467     10823  TIP3      OH2           -47.9862105720      -11.7819524159       11.1682936648  W2        11085           0.0000000000
     32468     10823  TIP3      H1            -48.0244605720      -12.4283224159       11.8732536648  W2        11085           0.0000000000
     32469     10823  TIP3      H2            -48.3085605720      -12.2485124159       10.3971636648  W2        11085           0.0000000000
     32470     10824  TIP3      OH2           -55.6177105720      -12.1677424159       12.7612836648  W2        11086           0.0000000000
     32471     10824  TIP3      H1            -55.5765005720      -12.7934124159       13.4845236648  W2        11086           0.0000000000
     32472     10824  TIP3      H2            -54.9149405720      -11.5438824159       12.9433236648  W2        11086           0.0000000000
     32473     10825  TIP3      OH2           -44.2801905720       -8.8429124159        9.4698036648  W2        11087           0.0000000000
     32474     10825  TIP3      H1            -44.7209205720       -9.5633124159        9.9203636648  W2        11087           0.0000000000
     32475     10825  TIP3      H2            -44.2932205720       -8.1221924159       10.0995736648  W2        11087           0.0000000000
     32476     10826  TIP3      OH2           -54.6944005720       -7.7178524159       11.2961936648  W2        11088           0.0000000000
     32477     10826  TIP3      H1            -55.0638805720       -8.5198024159       10.9266236648  W2        11088           0.0000000000
     32478     10826  TIP3      H2            -53.7532905720       -7.8863624159       11.3425336648  W2        11088           0.0000000000
     32479     10827  TIP3      OH2           -58.0843505720      -14.0575924159        6.6890736648  W2        11089           0.0000000000
     32480     10827  TIP3      H1            -58.5320105720      -13.2117224159        6.6707236648  W2        11089           0.0000000000
     32481     10827  TIP3      H2            -58.6452305720      -14.6371724159        6.1735836648  W2        11089           0.0000000000
     32482     10828  TIP3      OH2           -57.3737405720      -11.8956324159        8.8148736648  W2        11090           0.0000000000
     32483     10828  TIP3      H1            -57.1603905720      -12.6654724159        9.3421736648  W2        11090           0.0000000000
     32484     10828  TIP3      H2            -56.6359805720      -11.8059624159        8.2116336648  W2        11090           0.0000000000
     32485     10829  TIP3      OH2           -47.1686405720       -3.7387424159        9.6818436648  W2        11091           0.0000000000
     32486     10829  TIP3      H1            -46.5490005720       -4.4152724159        9.4087636648  W2        11091           0.0000000000
     32487     10829  TIP3      H2            -47.3769005720       -3.9566624159       10.5903336648  W2        11091           0.0000000000
     32488     10830  TIP3      OH2           -49.5967705720       -9.3498124159       11.5743936648  W2        11092           0.0000000000
     32489     10830  TIP3      H1            -49.2929805720      -10.0356724159       10.9798036648  W2        11092           0.0000000000
     32490     10830  TIP3      H2            -48.8753705720       -9.2309424159       12.1921936648  W2        11092           0.0000000000
     32491     10831  TIP3      OH2           -40.9337905720      -17.7482824159       12.4350136648  W2        11093           0.0000000000
     32492     10831  TIP3      H1            -40.8845705720      -17.1381624159       13.1709236648  W2        11093           0.0000000000
     32493     10831  TIP3      H2            -40.5082805720      -17.2871924159       11.7121236648  W2        11093           0.0000000000
     32494     10832  TIP3      OH2           -46.4560705720      -14.9555724159       11.9018736648  W2        11094           0.0000000000
     32495     10832  TIP3      H1            -46.3134805720      -15.9018724159       11.9220336648  W2        11094           0.0000000000
     32496     10832  TIP3      H2            -46.5621705720      -14.7485924159       10.9733636648  W2        11094           0.0000000000
     32497     10833  TIP3      OH2           -53.3012405720      -16.8539324159        9.1743536648  W2        11095           0.0000000000
     32498     10833  TIP3      H1            -53.2581305720      -15.9940824159        8.7559836648  W2        11095           0.0000000000
     32499     10833  TIP3      H2            -53.7588305720      -17.4064624159        8.5406736648  W2        11095           0.0000000000
     32500     10834  TIP3      OH2           -45.5789705720      -16.7233724159        7.5751836648  W2        11096           0.0000000000
     32501     10834  TIP3      H1            -44.9325405720      -17.0520524159        8.1999436648  W2        11096           0.0000000000
     32502     10834  TIP3      H2            -45.0690305720      -16.2054724159        6.9523236648  W2        11096           0.0000000000
     32503     10835  TIP3      OH2           -56.6810905720      -14.4573524159        9.9364936648  W2        11097           0.0000000000
     32504     10835  TIP3      H1            -56.0274305720      -15.0071824159       10.3685036648  W2        11097           0.0000000000
     32505     10835  TIP3      H2            -56.6571605720      -14.7314524159        9.0196936648  W2        11097           0.0000000000
     32506     10836  TIP3      OH2           -51.5246405720      -12.9072224159        9.1516436648  W2        11098           0.0000000000
     32507     10836  TIP3      H1            -50.9085405720      -13.4336824159        9.6610436648  W2        11098           0.0000000000
     32508     10836  TIP3      H2            -52.1107605720      -13.5473524159        8.7480036648  W2        11098           0.0000000000
     32509     10837  TIP3      OH2           -40.5423305720      -16.2703624159       14.6709936648  W2        11099           0.0000000000
     32510     10837  TIP3      H1            -41.2308705720      -15.6122924159       14.5756536648  W2        11099           0.0000000000
     32511     10837  TIP3      H2            -40.5268705720      -16.4675724159       15.6075336648  W2        11099           0.0000000000
     32512     10838  TIP3      OH2           -54.4910505720      -17.9360924159       13.2484336648  W2        11100           0.0000000000
     32513     10838  TIP3      H1            -54.7098805720      -17.4060324159       12.4820336648  W2        11100           0.0000000000
     32514     10838  TIP3      H2            -55.1589605720      -17.7095424159       13.8955736648  W2        11100           0.0000000000
     32515     10839  TIP3      OH2           -47.1220705720       -8.4359824159        6.7923436648  W2        11101           0.0000000000
     32516     10839  TIP3      H1            -47.4175605720       -8.7587524159        5.9410336648  W2        11101           0.0000000000
     32517     10839  TIP3      H2            -47.4462905720       -7.5363124159        6.8336036648  W2        11101           0.0000000000
     32518     10840  TIP3      OH2           -51.9219105720      -10.2605224159       13.5358036648  W2        11102           0.0000000000
     32519     10840  TIP3      H1            -52.6620005720       -9.6623724159       13.6393236648  W2        11102           0.0000000000
     32520     10840  TIP3      H2            -51.2079605720       -9.7065624159       13.2201636648  W2        11102           0.0000000000
     32521     10841  TIP3      OH2           -43.8151305720      -17.4324424159        9.5557736648  W2        11103           0.0000000000
     32522     10841  TIP3      H1            -44.0303305720      -18.1981024159       10.0883736648  W2        11103           0.0000000000
     32523     10841  TIP3      H2            -43.1593905720      -16.9599824159       10.0686236648  W2        11103           0.0000000000
     32524     10842  TIP3      OH2           -54.8973205720      -16.0439124159       11.2006536648  W2        11104           0.0000000000
     32525     10842  TIP3      H1            -54.2836905720      -15.4111524159       11.5738936648  W2        11104           0.0000000000
     32526     10842  TIP3      H2            -54.3852505720      -16.5164124159       10.5443436648  W2        11104           0.0000000000
     32527     10843  TIP3      OH2           -53.5144805720       -8.2962224159       14.3229536648  W2        11105           0.0000000000
     32528     10843  TIP3      H1            -53.5197205720       -7.4168724159       13.9448836648  W2        11105           0.0000000000
     32529     10843  TIP3      H2            -54.3680705720       -8.3798124159       14.7479436648  W2        11105           0.0000000000
     32530     10844  TIP3      OH2           -57.3933905720       -8.6254324159        5.1048836648  W2        11106           0.0000000000
     32531     10844  TIP3      H1            -57.6653005720       -8.3963324159        4.2161736648  W2        11106           0.0000000000
     32532     10844  TIP3      H2            -57.3478205720       -7.7875524159        5.5654136648  W2        11106           0.0000000000
     32533     10845  TIP3      OH2           -43.7684205720       -7.0038424159       11.8177336648  W2        11107           0.0000000000
     32534     10845  TIP3      H1            -44.7100505720       -6.9454524159       11.9794236648  W2        11107           0.0000000000
     32535     10845  TIP3      H2            -43.4918105720       -6.0977924159       11.6807036648  W2        11107           0.0000000000
     32536     10846  TIP3      OH2           -43.4677205720      -18.7173124159       13.2351236648  W2        11108           0.0000000000
     32537     10846  TIP3      H1            -44.2038005720      -18.1066024159       13.1972536648  W2        11108           0.0000000000
     32538     10846  TIP3      H2            -42.7843205720      -18.3024124159       12.7087636648  W2        11108           0.0000000000
     32539     10847  TIP3      OH2           -50.4645805720      -20.6305824159       10.7009236648  W2        11109           0.0000000000
     32540     10847  TIP3      H1            -50.5821605720      -21.5789824159       10.6467536648  W2        11109           0.0000000000
     32541     10847  TIP3      H2            -51.3195705720      -20.2979724159       10.9740336648  W2        11109           0.0000000000
     32542     10848  TIP3      OH2           -45.5163005720       -5.2224924159        8.4428936648  W2        11110           0.0000000000
     32543     10848  TIP3      H1            -45.0910705720       -5.9297024159        7.9578536648  W2        11110           0.0000000000
     32544     10848  TIP3      H2            -45.1993005720       -4.4212224159        8.0261136648  W2        11110           0.0000000000
     32545     10849  TIP3      OH2           -44.3566505720       -7.3216424159        6.9515536648  W2        11111           0.0000000000
     32546     10849  TIP3      H1            -44.6141705720       -8.0116324159        6.3401436648  W2        11111           0.0000000000
     32547     10849  TIP3      H2            -44.2855705720       -7.7645224159        7.7971436648  W2        11111           0.0000000000
     32548     10850  TIP3      OH2           -42.6706305720       -8.7549724159       15.4289036648  W2        11112           0.0000000000
     32549     10850  TIP3      H1            -42.5310005720       -9.3467224159       14.6896036648  W2        11112           0.0000000000
     32550     10850  TIP3      H2            -42.5033505720       -7.8823824159       15.0727836648  W2        11112           0.0000000000
     32551     10851  TIP3      OH2           -48.1980905720      -11.7930224159        5.2015036648  W2        11113           0.0000000000
     32552     10851  TIP3      H1            -48.9095405720      -11.2580524159        4.8495536648  W2        11113           0.0000000000
     32553     10851  TIP3      H2            -47.5071305720      -11.7378124159        4.5413936648  W2        11113           0.0000000000
     32554     10852  TIP3      OH2           -48.1441705720      -13.3355924159        2.2400036648  W2        11114           0.0000000000
     32555     10852  TIP3      H1            -47.4431805720      -13.3129024159        2.8914036648  W2        11114           0.0000000000
     32556     10852  TIP3      H2            -47.8418805720      -13.9636224159        1.5839336648  W2        11114           0.0000000000
     32557     10853  TIP3      OH2           -40.8287005720      -12.4151724159       13.4949436648  W2        11115           0.0000000000
     32558     10853  TIP3      H1            -41.4812905720      -11.7206124159       13.5840336648  W2        11115           0.0000000000
     32559     10853  TIP3      H2            -40.3636705720      -12.2050824159       12.6851036648  W2        11115           0.0000000000
     32560     10854  TIP3      OH2           -44.7923205720      -11.5836924159        6.1530936648  W2        11116           0.0000000000
     32561     10854  TIP3      H1            -45.5242205720      -11.3553224159        6.7261536648  W2        11116           0.0000000000
     32562     10854  TIP3      H2            -44.3451005720      -12.2974224159        6.6078436648  W2        11116           0.0000000000
     32563     10855  TIP3      OH2           -44.8949705720      -13.4094324159       15.2207936648  W2        11117           0.0000000000
     32564     10855  TIP3      H1            -44.8150605720      -12.6459924159       15.7926436648  W2        11117           0.0000000000
     32565     10855  TIP3      H2            -45.4962005720      -13.1301924159       14.5303036648  W2        11117           0.0000000000
     32566     10856  TIP3      OH2           -53.1469505720      -10.9530724159        8.0355936648  W2        11118           0.0000000000
     32567     10856  TIP3      H1            -53.4774305720      -11.3237324159        7.2172936648  W2        11118           0.0000000000
     32568     10856  TIP3      H2            -52.5585405720      -11.6236724159        8.3824236648  W2        11118           0.0000000000
     32569     10857  TIP3      OH2           -51.7802005720       -7.5250124159       10.7168136648  W2        11119           0.0000000000
     32570     10857  TIP3      H1            -51.8750705720       -8.1037024159        9.9602736648  W2        11119           0.0000000000
     32571     10857  TIP3      H2            -51.0508405720       -7.8964424159       11.2130936648  W2        11119           0.0000000000
     32572     10858  TIP3      OH2           -52.7804005720      -12.1845124159       11.6690936648  W2        11120           0.0000000000
     32573     10858  TIP3      H1            -52.2151505720      -12.0630924159       10.9062136648  W2        11120           0.0000000000
     32574     10858  TIP3      H2            -52.4615105720      -11.5470124159       12.3079436648  W2        11120           0.0000000000
     32575     10859  TIP3      OH2           -46.4711805720       -6.6813224159       12.4031436648  W2        11121           0.0000000000
     32576     10859  TIP3      H1            -46.7115205720       -6.0190124159       13.0510636648  W2        11121           0.0000000000
     32577     10859  TIP3      H2            -46.6693605720       -7.5158024159       12.8281036648  W2        11121           0.0000000000
     32578     10860  TIP3      OH2           -51.9003305720       -7.7852424159       16.3862836648  W2        11122           0.0000000000
     32579     10860  TIP3      H1            -52.2115805720       -7.0029224159       16.8416036648  W2        11122           0.0000000000
     32580     10860  TIP3      H2            -52.5503105720       -7.9383324159       15.7004836648  W2        11122           0.0000000000
     32581     10861  TIP3      OH2           -45.9213705720      -12.4214024159        3.8382136648  W2        11123           0.0000000000
     32582     10861  TIP3      H1            -45.3418205720      -12.2713724159        4.5851036648  W2        11123           0.0000000000
     32583     10861  TIP3      H2            -45.5073705720      -11.9506624159        3.1148536648  W2        11123           0.0000000000
     32584     10862  TIP3      OH2           -54.9803405720      -11.5871324159       15.6148536648  W2        11124           0.0000000000
     32585     10862  TIP3      H1            -54.9100205720      -10.9364524159       16.3133536648  W2        11124           0.0000000000
     32586     10862  TIP3      H2            -55.8711205720      -11.4843824159       15.2799436648  W2        11124           0.0000000000
     32587     10863  TIP3      OH2           -48.1948805720       -5.6845524159        7.2735236648  W2        11125           0.0000000000
     32588     10863  TIP3      H1            -47.7211205720       -5.3889224159        8.0509436648  W2        11125           0.0000000000
     32589     10863  TIP3      H2            -48.7579505720       -4.9463924159        7.0404836648  W2        11125           0.0000000000
     32590     10864  TIP3      OH2           -53.6607405720       -5.7137424159       17.1496636648  W2        11126           0.0000000000
     32591     10864  TIP3      H1            -53.6532105720       -5.8497724159       16.2022136648  W2        11126           0.0000000000
     32592     10864  TIP3      H2            -54.5767005720       -5.8309324159       17.4016636648  W2        11126           0.0000000000
     32593     10865  TIP3      OH2           -42.2225305720      -20.6713624159        3.6511836648  W2        11127           0.0000000000
     32594     10865  TIP3      H1            -43.1224605720      -20.5324624159        3.9462436648  W2        11127           0.0000000000
     32595     10865  TIP3      H2            -41.9706905720      -19.8399024159        3.2493536648  W2        11127           0.0000000000
     32596     10866  TIP3      OH2           -54.1566805720      -11.8836424159        5.6248736648  W2        11128           0.0000000000
     32597     10866  TIP3      H1            -54.4485505720      -11.1154724159        5.1340036648  W2        11128           0.0000000000
     32598     10866  TIP3      H2            -54.8311605720      -12.5430224159        5.4620136648  W2        11128           0.0000000000
     32599     10867  TIP3      OH2           -41.0333905720       -6.3051224159        2.0275736648  W2        11129           0.0000000000
     32600     10867  TIP3      H1            -40.9600405720       -5.3661024159        2.1981036648  W2        11129           0.0000000000
     32601     10867  TIP3      H2            -40.1278805720       -6.6102624159        1.9713036648  W2        11129           0.0000000000
     32602     10868  TIP3      OH2           -58.0636705720       -9.5207224159       14.4398536648  W2        11130           0.0000000000
     32603     10868  TIP3      H1            -58.5648305720       -9.5487824159       13.6248236648  W2        11130           0.0000000000
     32604     10868  TIP3      H2            -58.0583005720      -10.4264024159       14.7495836648  W2        11130           0.0000000000
     32605     10869  TIP3      OH2           -58.3134005720       -6.7403424159       11.3238736648  W2        11131           0.0000000000
     32606     10869  TIP3      H1            -57.3673405720       -6.8846424159       11.3048236648  W2        11131           0.0000000000
     32607     10869  TIP3      H2            -58.4257705720       -5.9560624159       11.8609936648  W2        11131           0.0000000000
     32608     10870  TIP3      OH2           -40.1155505720       -6.0743724159       17.0062436648  W2        11132           0.0000000000
     32609     10870  TIP3      H1            -40.1648705720       -7.0295624159       16.9690036648  W2        11132           0.0000000000
     32610     10870  TIP3      H2            -40.9423205720       -5.8068424159       17.4076236648  W2        11132           0.0000000000
     32611     10871  TIP3      OH2           -49.1371505720       -6.5004524159       15.8823836648  W2        11133           0.0000000000
     32612     10871  TIP3      H1            -49.0496905720       -5.6739924159       16.3572936648  W2        11133           0.0000000000
     32613     10871  TIP3      H2            -50.0006405720       -6.8300724159       16.1313136648  W2        11133           0.0000000000
     32614     10872  TIP3      OH2           -48.7225705720       -2.7280824159        5.6884436648  W2        11134           0.0000000000
     32615     10872  TIP3      H1            -48.7979705720       -2.8493624159        4.7419636648  W2        11134           0.0000000000
     32616     10872  TIP3      H2            -48.6897005720       -1.7788124159        5.8069036648  W2        11134           0.0000000000
     32617     10873  TIP3      OH2           -55.0691905720       -3.9393824159        7.4693436648  W2        11135           0.0000000000
     32618     10873  TIP3      H1            -54.9171505720       -4.2873424159        8.3479936648  W2        11135           0.0000000000
     32619     10873  TIP3      H2            -55.9201505720       -4.2956524159        7.2140636648  W2        11135           0.0000000000
     32620     10874  TIP3      OH2           -45.6209705720       -3.5740624159        2.6906836648  W2        11136           0.0000000000
     32621     10874  TIP3      H1            -45.2461305720       -4.3184524159        2.2199436648  W2        11136           0.0000000000
     32622     10874  TIP3      H2            -45.6166005720       -3.8440024159        3.6090136648  W2        11136           0.0000000000
     32623     10875  TIP3      OH2           -45.9521605720       -3.6483524159        5.4399036648  W2        11137           0.0000000000
     32624     10875  TIP3      H1            -46.8871805720       -3.5481624159        5.6186036648  W2        11137           0.0000000000
     32625     10875  TIP3      H2            -45.6719705720       -4.3577524159        6.0182236648  W2        11137           0.0000000000
     32626     10876  TIP3      OH2           -42.9635705720      -14.5811224159       17.4864636648  W2        11138           0.0000000000
     32627     10876  TIP3      H1            -43.3708905720      -14.1005624159       16.7657936648  W2        11138           0.0000000000
     32628     10876  TIP3      H2            -42.9230005720      -15.4865224159       17.1785436648  W2        11138           0.0000000000
     32629     10877  TIP3      OH2           -55.8146205720       -8.1971824159       15.4831336648  W2        11139           0.0000000000
     32630     10877  TIP3      H1            -55.5984905720       -8.5586224159       16.3427136648  W2        11139           0.0000000000
     32631     10877  TIP3      H2            -56.6701505720       -8.5718024159       15.2734836648  W2        11139           0.0000000000
     32632     10878  TIP3      OH2           -53.1958205720      -19.7271324159       11.4785536648  W2        11140           0.0000000000
     32633     10878  TIP3      H1            -54.0574505720      -19.8143124159       11.0708436648  W2        11140           0.0000000000
     32634     10878  TIP3      H2            -53.2182505720      -18.8711224159       11.9063136648  W2        11140           0.0000000000
     32635     10879  TIP3      OH2           -48.5330405720      -20.0050924159       14.8532536648  W2        11141           0.0000000000
     32636     10879  TIP3      H1            -48.1127305720      -20.4203824159       15.6063136648  W2        11141           0.0000000000
     32637     10879  TIP3      H2            -49.4660805720      -20.1837624159       14.9704536648  W2        11141           0.0000000000
     32638     10880  TIP3      OH2           -45.2065505720      -16.2495724159       15.7067036648  W2        11142           0.0000000000
     32639     10880  TIP3      H1            -45.7206005720      -16.3753524159       16.5043036648  W2        11142           0.0000000000
     32640     10880  TIP3      H2            -45.3620805720      -15.3372624159       15.4623236648  W2        11142           0.0000000000
     32641     10881  TIP3      OH2           -44.4440605720      -11.3885724159        1.4680036648  W2        11143           0.0000000000
     32642     10881  TIP3      H1            -44.4019805720      -11.6111824159        0.5380036648  W2        11143           0.0000000000
     32643     10881  TIP3      H2            -43.5948505720      -10.9898624159        1.6579936648  W2        11143           0.0000000000
     32644     10882  TIP3      OH2           -48.8713105720      -17.5127524159        2.1383336648  W2        11144           0.0000000000
     32645     10882  TIP3      H1            -49.1248305720      -17.4935924159        3.0611436648  W2        11144           0.0000000000
     32646     10882  TIP3      H2            -49.1281005720      -18.3842124159        1.8369536648  W2        11144           0.0000000000
     32647     10883  TIP3      OH2           -53.1048105720      -14.7616824159       12.5735736648  W2        11145           0.0000000000
     32648     10883  TIP3      H1            -53.7466005720      -14.8019524159       13.2825836648  W2        11145           0.0000000000
     32649     10883  TIP3      H2            -53.0676105720      -13.8352124159       12.3358736648  W2        11145           0.0000000000
     32650     10884  TIP3      OH2           -53.1079005720      -14.5406724159        7.4855736648  W2        11146           0.0000000000
     32651     10884  TIP3      H1            -54.0006105720      -14.8810624159        7.4269536648  W2        11146           0.0000000000
     32652     10884  TIP3      H2            -52.6572405720      -14.9175824159        6.7298936648  W2        11146           0.0000000000
     32653     10885  TIP3      OH2           -47.5723505720      -14.1246424159        6.3026536648  W2        11147           0.0000000000
     32654     10885  TIP3      H1            -47.9813205720      -13.3097824159        6.0111336648  W2        11147           0.0000000000
     32655     10885  TIP3      H2            -46.8517305720      -14.2646324159        5.6883636648  W2        11147           0.0000000000
     32656     10886  TIP3      OH2           -48.4701905720      -13.9490024159       17.7907236648  W2        11148           0.0000000000
     32657     10886  TIP3      H1            -49.0328105720      -14.6538424159       18.1115036648  W2        11148           0.0000000000
     32658     10886  TIP3      H2            -47.6438505720      -14.0698124159       18.2584836648  W2        11148           0.0000000000
     32659     10887  TIP3      OH2           -46.5675805720      -14.6786024159        9.1166236648  W2        11149           0.0000000000
     32660     10887  TIP3      H1            -46.7631305720      -14.0729224159        8.4016836648  W2        11149           0.0000000000
     32661     10887  TIP3      H2            -46.3863205720      -15.5120824159        8.6822536648  W2        11149           0.0000000000
     32662     10888  TIP3      OH2           -55.3547605720      -14.4413324159       14.4407736648  W2        11150           0.0000000000
     32663     10888  TIP3      H1            -55.3928205720      -14.0411724159       15.3094836648  W2        11150           0.0000000000
     32664     10888  TIP3      H2            -55.8456505720      -15.2580924159       14.5310636648  W2        11150           0.0000000000
     32665     10889  TIP3      OH2           -51.9890205720      -17.0671024159        1.2393736648  W2        11151           0.0000000000
     32666     10889  TIP3      H1            -52.4199505720      -17.5120924159        1.9691136648  W2        11151           0.0000000000
     32667     10889  TIP3      H2            -52.7071505720      -16.6954724159        0.7271236648  W2        11151           0.0000000000
     32668     10890  TIP3      OH2           -58.7466805720      -17.3251524159        8.2912436648  W2        11152           0.0000000000
     32669     10890  TIP3      H1            -58.1159105720      -17.3539424159        9.0106336648  W2        11152           0.0000000000
     32670     10890  TIP3      H2            -58.2972505720      -17.7502824159        7.5608336648  W2        11152           0.0000000000
     32671     10891  TIP3      OH2           -57.4724705720      -16.5789524159        3.7152836648  W2        11153           0.0000000000
     32672     10891  TIP3      H1            -56.9983005720      -15.9879624159        3.1303736648  W2        11153           0.0000000000
     32673     10891  TIP3      H2            -58.1898305720      -16.0486624159        4.0622936648  W2        11153           0.0000000000
     32674     10892  TIP3      OH2           -47.3036605720      -13.0404724159       13.7878636648  W2        11154           0.0000000000
     32675     10892  TIP3      H1            -46.9801805720      -13.6715024159       13.1449136648  W2        11154           0.0000000000
     32676     10892  TIP3      H2            -47.7437305720      -13.5752524159       14.4486036648  W2        11154           0.0000000000
     32677     10893  TIP3      OH2           -50.5263705720      -17.1129224159        8.5719836648  W2        11155           0.0000000000
     32678     10893  TIP3      H1            -51.4372605720      -17.0562424159        8.8605836648  W2        11155           0.0000000000
     32679     10893  TIP3      H2            -50.0210805720      -17.1733724159        9.3827036648  W2        11155           0.0000000000
     32680     10894  TIP3      OH2           -55.6980305720      -15.4842924159        7.3987436648  W2        11156           0.0000000000
     32681     10894  TIP3      H1            -56.5872305720      -15.3847424159        7.0587036648  W2        11156           0.0000000000
     32682     10894  TIP3      H2            -55.4015405720      -16.3259924159        7.0525336648  W2        11156           0.0000000000
     32683     10895  TIP3      OH2           -52.0448505720      -15.4840324159        5.0552036648  W2        11157           0.0000000000
     32684     10895  TIP3      H1            -51.1133005720      -15.3550324159        5.2335136648  W2        11157           0.0000000000
     32685     10895  TIP3      H2            -52.2598205720      -14.8146024159        4.4056736648  W2        11157           0.0000000000
     32686     10896  TIP3      OH2           -46.1211805720      -17.8782924159       11.8361636648  W2        11158           0.0000000000
     32687     10896  TIP3      H1            -46.7980205720      -17.7469824159       12.5001336648  W2        11158           0.0000000000
     32688     10896  TIP3      H2            -46.6066905720      -18.0333424159       11.0259336648  W2        11158           0.0000000000
     32689     10897  TIP3      OH2           -53.3708305720      -14.2898124159        2.6218136648  W2        11159           0.0000000000
     32690     10897  TIP3      H1            -53.9133205720      -14.6694324159        1.9305736648  W2        11159           0.0000000000
     32691     10897  TIP3      H2            -52.5373405720      -14.0953424159        2.1932236648  W2        11159           0.0000000000
     32692     10898  TIP3      OH2           -55.2356905720       -9.7326224159       17.7209736648  W2        11161           0.0000000000
     32693     10898  TIP3      H1            -54.5034505720       -9.4780324159       18.2824236648  W2        11161           0.0000000000
     32694     10898  TIP3      H2            -56.0158205720       -9.5280824159       18.2365136648  W2        11161           0.0000000000
     32695     10899  TIP3      OH2           -49.2064005720      -14.3256224159       10.4589436648  W2        11162           0.0000000000
     32696     10899  TIP3      H1            -48.6420605720      -14.8719624159        9.9119036648  W2        11162           0.0000000000
     32697     10899  TIP3      H2            -49.3540605720      -14.8474324159       11.2477036648  W2        11162           0.0000000000
     32698     10900  TIP3      OH2           -54.2044305720      -18.1890124159        6.8774236648  W2        11163           0.0000000000
     32699     10900  TIP3      H1            -54.5214805720      -19.0914824159        6.8419636648  W2        11163           0.0000000000
     32700     10900  TIP3      H2            -53.4230205720      -18.1872724159        6.3245836648  W2        11163           0.0000000000
     32701     10901  TIP3      OH2           -50.5798105720      -15.9370124159       12.8729836648  W2        11164           0.0000000000
     32702     10901  TIP3      H1            -51.4152805720      -15.4830624159       12.9832236648  W2        11164           0.0000000000
     32703     10901  TIP3      H2            -50.0557505720      -15.6611624159       13.6249736648  W2        11164           0.0000000000
     32704     10902  TIP3      OH2           -50.0355505720       -9.7242424159        4.5576236648  W2        11165           0.0000000000
     32705     10902  TIP3      H1            -50.7804505720      -10.2317124159        4.2354136648  W2        11165           0.0000000000
     32706     10902  TIP3      H2            -50.1698305720       -9.6754424159        5.5041036648  W2        11165           0.0000000000
     32707     10903  TIP3      OH2           -42.8856605720      -10.5914224159       13.3443836648  W2        11166           0.0000000000
     32708     10903  TIP3      H1            -42.2437805720      -10.1347924159       12.8006036648  W2        11166           0.0000000000
     32709     10903  TIP3      H2            -43.7159705720      -10.4781824159       12.8817936648  W2        11166           0.0000000000
     32710     10904  TIP3      OH2           -46.1378705720      -16.9102524159        2.7568836648  W2        11167           0.0000000000
     32711     10904  TIP3      H1            -47.0764505720      -16.7986924159        2.6057636648  W2        11167           0.0000000000
     32712     10904  TIP3      H2            -45.8406605720      -16.0535624159        3.0634536648  W2        11167           0.0000000000
     32713     10905  TIP3      OH2           -48.5163405720       -9.5399124159       15.7945336648  W2        11168           0.0000000000
     32714     10905  TIP3      H1            -48.8617305720       -9.9216724159       16.6014936648  W2        11168           0.0000000000
     32715     10905  TIP3      H2            -48.7163305720       -8.6065524159       15.8658236648  W2        11168           0.0000000000
     32716     10906  TIP3      OH2           -45.4195205720      -15.0429824159        4.4176236648  W2        11169           0.0000000000
     32717     10906  TIP3      H1            -44.5276205720      -15.1804824159        4.7367436648  W2        11169           0.0000000000
     32718     10906  TIP3      H2            -45.3631605720      -14.2523724159        3.8809736648  W2        11169           0.0000000000
     32719     10907  TIP3      OH2           -54.9107205720      -10.4292424159       10.3274136648  W2        11170           0.0000000000
     32720     10907  TIP3      H1            -54.1660005720      -10.4316724159        9.7260636648  W2        11170           0.0000000000
     32721     10907  TIP3      H2            -54.8330605720      -11.2528624159       10.8089236648  W2        11170           0.0000000000
     32722     10908  TIP3      OH2           -47.9101405720       -8.2658124159        3.5830836648  W2        11171           0.0000000000
     32723     10908  TIP3      H1            -48.2053005720       -7.4390224159        3.9645636648  W2        11171           0.0000000000
     32724     10908  TIP3      H2            -48.6131405720       -8.8851224159        3.7792236648  W2        11171           0.0000000000
     32725     10909  TIP3      OH2           -57.9027505720      -11.9685524159       15.6422636648  W2        11172           0.0000000000
     32726     10909  TIP3      H1            -57.6798905720      -12.3865924159       16.4740136648  W2        11172           0.0000000000
     32727     10909  TIP3      H2            -58.5047405720      -12.5810524159       15.2195436648  W2        11172           0.0000000000
     32728     10910  TIP3      OH2           -46.2659805720       -7.0783624159       15.7450336648  W2        11174           0.0000000000
     32729     10910  TIP3      H1            -47.1665505720       -6.8951024159       15.4774236648  W2        11174           0.0000000000
     32730     10910  TIP3      H2            -46.2318705720       -6.8194324159       16.6659136648  W2        11174           0.0000000000
     32731     10911  TIP3      OH2           -40.5346505720      -14.8335724159        4.1122936648  W2        11175           0.0000000000
     32732     10911  TIP3      H1            -41.0890205720      -15.2297724159        3.4400436648  W2        11175           0.0000000000
     32733     10911  TIP3      H2            -40.4342905720      -13.9230524159        3.8346236648  W2        11175           0.0000000000
     32734     10912  TIP3      OH2           -40.5714505720       -9.0334024159       16.9494436648  W2        11176           0.0000000000
     32735     10912  TIP3      H1            -41.4226005720       -8.7950224159       16.5820836648  W2        11176           0.0000000000
     32736     10912  TIP3      H2            -39.9811105720       -9.0500824159       16.1961536648  W2        11176           0.0000000000
     32737     10913  TIP3      OH2           -42.2394805720       -6.0475324159        4.5775036648  W2        11177           0.0000000000
     32738     10913  TIP3      H1            -42.6123705720       -6.8731524159        4.8865636648  W2        11177           0.0000000000
     32739     10913  TIP3      H2            -41.9621305720       -6.2305924159        3.6798436648  W2        11177           0.0000000000
     32740     10914  TIP3      OH2           -45.0790905720      -11.2395824159       11.5986936648  W2        11178           0.0000000000
     32741     10914  TIP3      H1            -46.0074005720      -11.4713924159       11.5716236648  W2        11178           0.0000000000
     32742     10914  TIP3      H2            -44.6279805720      -12.0166024159       11.2685736648  W2        11178           0.0000000000
     32743     10915  TIP3      OH2           -52.5357805720       -6.9114224159        7.7315636648  W2        11179           0.0000000000
     32744     10915  TIP3      H1            -52.0085605720       -6.1379824159        7.5314436648  W2        11179           0.0000000000
     32745     10915  TIP3      H2            -53.4159305720       -6.6865024159        7.4299636648  W2        11179           0.0000000000
     32746     10916  TIP3      OH2           -56.7810105720      -12.0490124159        2.3188036648  W2        11180           0.0000000000
     32747     10916  TIP3      H1            -56.1650205720      -11.4222924159        2.6982836648  W2        11180           0.0000000000
     32748     10916  TIP3      H2            -57.6427505720      -11.7330324159        2.5904536648  W2        11180           0.0000000000
     32749     10917  TIP3      OH2           -51.1085505720       -9.2484324159        7.3079936648  W2        11181           0.0000000000
     32750     10917  TIP3      H1            -51.3495505720       -8.3229924159        7.3495236648  W2        11181           0.0000000000
     32751     10917  TIP3      H2            -51.8491905720       -9.7073024159        7.7043836648  W2        11181           0.0000000000
     32752     10918  TIP3      OH2           -50.5938905720       -5.0990724159       13.6231036648  W2        11182           0.0000000000
     32753     10918  TIP3      H1            -50.2314205720       -4.2445124159       13.3895436648  W2        11182           0.0000000000
     32754     10918  TIP3      H2            -50.0623705720       -5.3909124159       14.3637336648  W2        11182           0.0000000000
     32755     10919  TIP3      OH2           -52.4254705720       -4.2266724159        6.8532136648  W2        11183           0.0000000000
     32756     10919  TIP3      H1            -53.3754205720       -4.1209324159        6.9045436648  W2        11183           0.0000000000
     32757     10919  TIP3      H2            -52.0736605720       -3.4059324159        7.1979636648  W2        11183           0.0000000000
     32758     10920  TIP3      OH2           -47.0498105720       -9.0000024159       13.3236636648  W2        11184           0.0000000000
     32759     10920  TIP3      H1            -47.4756805720       -9.2278324159       14.1500636648  W2        11184           0.0000000000
     32760     10920  TIP3      H2            -46.4692305720       -9.7388224159       13.1411936648  W2        11184           0.0000000000
     32761     10921  TIP3      OH2           -44.8469205720       -8.0709524159        2.3975636648  W2        11185           0.0000000000
     32762     10921  TIP3      H1            -44.4936105720       -8.4509724159        3.2019136648  W2        11185           0.0000000000
     32763     10921  TIP3      H2            -45.7955705720       -8.1644724159        2.4844936648  W2        11185           0.0000000000
     32764     10922  TIP3      OH2           -44.3913905720       -4.4480524159       15.7931436648  W2        11186           0.0000000000
     32765     10922  TIP3      H1            -44.9930705720       -5.0037624159       15.2977736648  W2        11186           0.0000000000
     32766     10922  TIP3      H2            -44.1100205720       -3.7810724159       15.1668836648  W2        11186           0.0000000000
     32767     10923  TIP3      OH2           -40.3434805720       -3.5917024159        2.5985836648  W2        11187           0.0000000000
     32768     10923  TIP3      H1            -39.5996905720       -3.0056524159        2.4587436648  W2        11187           0.0000000000
     32769     10923  TIP3      H2            -41.0376705720       -3.0231224159        2.9318236648  W2        11187           0.0000000000
     32770     10924  TIP3      OH2           -56.2688005720      -17.2152824159       15.2004036648  W2        11188           0.0000000000
     32771     10924  TIP3      H1            -57.1615705720      -16.8767424159       15.1328036648  W2        11188           0.0000000000
     32772     10924  TIP3      H2            -56.3675205720      -18.0706724159       15.6184836648  W2        11188           0.0000000000
     32773     10925  TIP3      OH2           -43.9809905720       -9.3987524159        4.6243536648  W2        11189           0.0000000000
     32774     10925  TIP3      H1            -44.2582305720      -10.1268224159        5.1804636648  W2        11189           0.0000000000
     32775     10925  TIP3      H2            -43.0536905720       -9.2795524159        4.8296136648  W2        11189           0.0000000000
     32776     10926  TIP3      OH2           -56.6176005720       -5.4108424159       13.6353436648  W2        11190           0.0000000000
     32777     10926  TIP3      H1            -56.4005705720       -6.3426024159       13.6043136648  W2        11190           0.0000000000
     32778     10926  TIP3      H2            -56.3712505720       -5.1363424159       14.5186236648  W2        11190           0.0000000000
     32779     10927  TIP3      OH2           -50.7561405720       -6.9593424159        0.8445636648  W2        11191           0.0000000000
     32780     10927  TIP3      H1            -50.5171605720       -7.7075324159        0.2974536648  W2        11191           0.0000000000
     32781     10927  TIP3      H2            -51.0250105720       -7.3471724159        1.6773436648  W2        11191           0.0000000000
     32782     10928  TIP3      OH2           -51.8190805720       -7.3889624159        3.3008236648  W2        11192           0.0000000000
     32783     10928  TIP3      H1            -51.6722805720       -7.9089824159        4.0909136648  W2        11192           0.0000000000
     32784     10928  TIP3      H2            -51.8219105720       -6.4822024159        3.6074136648  W2        11192           0.0000000000
     32785     10929  TIP3      OH2           -55.3659705720      -10.1366324159        3.8113636648  W2        11193           0.0000000000
     32786     10929  TIP3      H1            -56.0520405720       -9.7843824159        4.3783336648  W2        11193           0.0000000000
     32787     10929  TIP3      H2            -54.8431805720       -9.3736724159        3.5647936648  W2        11193           0.0000000000
     32788     10930  TIP3      OH2           -47.5344605720      -17.4742524159       14.0902636648  W2        11194           0.0000000000
     32789     10930  TIP3      H1            -46.8356705720      -17.4003824159       14.7402336648  W2        11194           0.0000000000
     32790     10930  TIP3      H2            -47.9153205720      -18.3387524159       14.2445536648  W2        11194           0.0000000000
     32791     10931  TIP3      OH2           -46.7499705720      -17.8220824159        5.1874936648  W2        11195           0.0000000000
     32792     10931  TIP3      H1            -46.5301405720      -17.3505424159        4.3840336648  W2        11195           0.0000000000
     32793     10931  TIP3      H2            -46.1915705720      -17.4278224159        5.8575536648  W2        11195           0.0000000000
     32794     10932  TIP3      OH2           -49.0813605720       -5.6916024159        4.0502436648  W2        11196           0.0000000000
     32795     10932  TIP3      H1            -49.8977505720       -5.1946324159        4.1026736648  W2        11196           0.0000000000
     32796     10932  TIP3      H2            -48.5517305720       -5.2162524159        3.4101236648  W2        11196           0.0000000000
     32797     10933  TIP3      OH2           -49.5499805720      -16.0942024159        6.0223336648  W2        11197           0.0000000000
     32798     10933  TIP3      H1            -48.7377205720      -15.5898824159        6.0685036648  W2        11197           0.0000000000
     32799     10933  TIP3      H2            -49.7946805720      -16.2392324159        6.9362936648  W2        11197           0.0000000000
     32800     10934  TIP3      OH2           -49.0143405720      -15.1079324159       15.2069936648  W2        11198           0.0000000000
     32801     10934  TIP3      H1            -48.8953105720      -14.5343924159       15.9640336648  W2        11198           0.0000000000
     32802     10934  TIP3      H2            -48.3588805720      -15.7959924159       15.3217736648  W2        11198           0.0000000000
     32803     10935  TIP3      OH2           -48.6663105720      -19.0129024159        6.9604436648  W2        11199           0.0000000000
     32804     10935  TIP3      H1            -49.0129605720      -18.3958424159        7.6048736648  W2        11199           0.0000000000
     32805     10935  TIP3      H2            -48.0076205720      -18.5123324159        6.4789936648  W2        11199           0.0000000000
     32806     10936  TIP3      OH2           -51.7430505720       -4.6478824159        4.0319336648  W2        11200           0.0000000000
     32807     10936  TIP3      H1            -51.5821805720       -3.8481324159        3.5311936648  W2        11200           0.0000000000
     32808     10936  TIP3      H2            -51.9402705720       -4.3412824159        4.9169936648  W2        11200           0.0000000000
     32809     10937  TIP3      OH2           -53.0086105720      -17.9499624159        3.6476936648  W2        11201           0.0000000000
     32810     10937  TIP3      H1            -53.0921305720      -17.0616524159        3.9943336648  W2        11201           0.0000000000
     32811     10937  TIP3      H2            -52.1185805720      -18.2152924159        3.8793736648  W2        11201           0.0000000000
     32812     10938  TIP3      OH2           -42.8097605720      -17.2009024159       16.0419636648  W2        11202           0.0000000000
     32813     10938  TIP3      H1            -43.7261805720      -16.9387324159       15.9543336648  W2        11202           0.0000000000
     32814     10938  TIP3      H2            -42.4742605720      -17.2040024159       15.1454936648  W2        11202           0.0000000000
     32815     10939  TIP3      OH2           -44.2076605720      -13.4508024159       10.1376936648  W2        11203           0.0000000000
     32816     10939  TIP3      H1            -45.0052205720      -13.8657824159        9.8091936648  W2        11203           0.0000000000
     32817     10939  TIP3      H2            -43.7625505720      -14.1414324159       10.6287436648  W2        11203           0.0000000000
     32818     10940  TIP3      OH2           -54.7500805720       -7.5227424159        2.7081436648  W2        11204           0.0000000000
     32819     10940  TIP3      H1            -54.1579305720       -6.8232624159        2.9843836648  W2        11204           0.0000000000
     32820     10940  TIP3      H2            -54.2907805720       -7.9557924159        1.9886036648  W2        11204           0.0000000000
     32821     10941  TIP3      OH2           -56.4341605720      -14.8584424159        1.8240836648  W2        11205           0.0000000000
     32822     10941  TIP3      H1            -56.4789005720      -13.9191324159        2.0027836648  W2        11205           0.0000000000
     32823     10941  TIP3      H2            -57.3218405720      -15.0939524159        1.5542936648  W2        11205           0.0000000000
     32824     10942  TIP3      OH2           -43.1212005720       -4.1945524159       11.7600436648  W2        11206           0.0000000000
     32825     10942  TIP3      H1            -43.2767705720       -3.5161124159       11.1029736648  W2        11206           0.0000000000
     32826     10942  TIP3      H2            -42.1885605720       -4.1226224159       11.9631036648  W2        11206           0.0000000000
     32827     10943  TIP3      OH2           -55.6259605720      -20.0767824159       10.4971836648  W2        11207           0.0000000000
     32828     10943  TIP3      H1            -55.8549805720      -20.0175324159        9.5696836648  W2        11207           0.0000000000
     32829     10943  TIP3      H2            -56.0686205720      -20.8682324159       10.8035936648  W2        11207           0.0000000000
     32830     10944  TIP3      OH2           -56.6956305720       -6.1360724159        6.6577636648  W2        11208           0.0000000000
     32831     10944  TIP3      H1            -57.5277705720       -5.6638024159        6.6849036648  W2        11208           0.0000000000
     32832     10944  TIP3      H2            -56.1498005720       -5.6263124159        6.0590736648  W2        11208           0.0000000000
     32833     10945  TIP3      OH2           -48.7179605720       -5.0962024159        0.9831636648  W2        11211           0.0000000000
     32834     10945  TIP3      H1            -49.3618605720       -5.7273424159        1.3045336648  W2        11211           0.0000000000
     32835     10945  TIP3      H2            -47.9561305720       -5.6274024159        0.7515136648  W2        11211           0.0000000000
     32836     10946  TIP3      OH2           -44.1136705720       -5.2792124159        1.2169636648  W2        11213           0.0000000000
     32837     10946  TIP3      H1            -43.8306305720       -6.0736924159        1.6696536648  W2        11213           0.0000000000
     32838     10946  TIP3      H2            -43.3738805720       -5.0461124159        0.6560736648  W2        11213           0.0000000000
     32839     10947  TIP3      OH2           -53.1589405720       -9.3697224159        1.0744536648  W2        11215           0.0000000000
     32840     10947  TIP3      H1            -53.0945305720      -10.1637624159        1.6050936648  W2        11215           0.0000000000
     32841     10947  TIP3      H2            -52.5060205720       -9.4884424159        0.3846536648  W2        11215           0.0000000000
     32842     10948  TIP3      OH2           -47.8066005720       -8.3225524159        0.8102536648  W2        11217           0.0000000000
     32843     10948  TIP3      H1            -48.0751905720       -8.1423424159        1.7111436648  W2        11217           0.0000000000
     32844     10948  TIP3      H2            -48.0130405720       -9.2479324159        0.6788336648  W2        11217           0.0000000000
     32845     10949  TIP3      OH2           -45.1101805720       -9.8277524159       15.7578636648  W2        11218           0.0000000000
     32846     10949  TIP3      H1            -44.3647005720       -9.2393824159       15.6382636648  W2        11218           0.0000000000
     32847     10949  TIP3      H2            -45.8675005720       -9.2457824159       15.8211736648  W2        11218           0.0000000000
     32848     10950  TIP3      OH2           -52.0095605720      -11.3971024159        3.3802536648  W2        11220           0.0000000000
     32849     10950  TIP3      H1            -52.4693605720      -11.8812724159        4.0661036648  W2        11220           0.0000000000
     32850     10950  TIP3      H2            -51.7546905720      -12.0655624159        2.7443036648  W2        11220           0.0000000000
     32851     10951  TIP3      OH2           -52.7206305720      -13.5043924159       15.7362136648  W2        11221           0.0000000000
     32852     10951  TIP3      H1            -53.3390205720      -12.8297324159       16.0166836648  W2        11221           0.0000000000
     32853     10951  TIP3      H2            -52.3765105720      -13.1830024159       14.9028336648  W2        11221           0.0000000000
     32854     10952  TIP3      OH2           -50.9385205720      -13.1539224159        1.6425736648  W2        11222           0.0000000000
     32855     10952  TIP3      H1            -51.1190205720      -13.3088024159        0.7154036648  W2        11222           0.0000000000
     32856     10952  TIP3      H2            -49.9884705720      -13.0460524159        1.6873636648  W2        11222           0.0000000000
     32857     10953  TIP3      OH2           -41.5486905720      -10.7995024159        1.0883836648  W2        11224           0.0000000000
     32858     10953  TIP3      H1            -41.8222105720      -11.2239524159        0.2752136648  W2        11224           0.0000000000
     32859     10953  TIP3      H2            -41.5092805720       -9.8680524159        0.8714236648  W2        11224           0.0000000000
     32860     10954  TIP3      OH2           -52.3812605720      -16.1493124159       16.8185236648  W2        11225           0.0000000000
     32861     10954  TIP3      H1            -52.2311705720      -16.8781824159       16.2164936648  W2        11225           0.0000000000
     32862     10954  TIP3      H2            -52.3790205720      -15.3721424159       16.2597436648  W2        11225           0.0000000000
     32863     10955  TIP3      OH2           -51.9686905720      -17.7797324159       14.3112636648  W2        11226           0.0000000000
     32864     10955  TIP3      H1            -51.4329405720      -17.3280624159       13.6591936648  W2        11226           0.0000000000
     32865     10955  TIP3      H2            -52.8207305720      -17.8877524159       13.8886736648  W2        11226           0.0000000000
     32866     10956  TIP3      OH2           -50.3868505720      -12.3401124159       14.5507836648  W2        11227           0.0000000000
     32867     10956  TIP3      H1            -49.6363705720      -12.4963624159       13.9775636648  W2        11227           0.0000000000
     32868     10956  TIP3      H2            -50.7260205720      -11.4884524159       14.2753336648  W2        11227           0.0000000000
     32869     10957  TIP3      OH2           -44.6545105720      -11.7364124159       17.6565836648  W2        11229           0.0000000000
     32870     10957  TIP3      H1            -44.9360105720      -11.0269524159       17.0789636648  W2        11229           0.0000000000
     32871     10957  TIP3      H2            -43.7120805720      -11.8091124159       17.5057036648  W2        11229           0.0000000000
     32872     10958  TIP3      OH2           -51.1631405720      -20.3231624159       14.7426236648  W2        11231           0.0000000000
     32873     10958  TIP3      H1            -51.2611805720      -19.3768424159       14.6372436648  W2        11231           0.0000000000
     32874     10958  TIP3      H2            -51.9055205720      -20.6957824159       14.2669736648  W2        11231           0.0000000000
     32875     10959  TIP3      OH2           -47.1834305720      -16.8742724159       17.3818136648  W2        11233           0.0000000000
     32876     10959  TIP3      H1            -48.1308905720      -16.8423024159       17.5141436648  W2        11233           0.0000000000
     32877     10959  TIP3      H2            -46.8707605720      -17.4995624159       18.0356336648  W2        11233           0.0000000000
     32878     10960  TIP3      OH2           -50.9413305720      -21.0294224159       17.4139036648  W2        11236           0.0000000000
     32879     10960  TIP3      H1            -50.2294905720      -21.6692024159       17.3998136648  W2        11236           0.0000000000
     32880     10960  TIP3      H2            -51.0422905720      -20.7625924159       16.5002136648  W2        11236           0.0000000000
     32881     10961  TIP3      OH2           -51.0413505720       -2.4635524159        2.6439336648  W2        11238           0.0000000000
     32882     10961  TIP3      H1            -50.1082805720       -2.3056824159        2.7877736648  W2        11238           0.0000000000
     32883     10961  TIP3      H2            -51.3054705720       -1.7882524159        2.0190836648  W2        11238           0.0000000000
     32884     10962  TIP3      OH2           -57.4728605720       -7.8271724159        2.1267436648  W2        11239           0.0000000000
     32885     10962  TIP3      H1            -56.5589405720       -7.7482824159        2.4001336648  W2        11239           0.0000000000
     32886     10962  TIP3      H2            -57.4655505720       -8.5142124159        1.4603036648  W2        11239           0.0000000000
     32887     10963  TIP3      OH2           -58.8238005720       -2.4343224159        7.2041336648  W2        11240           0.0000000000
     32888     10963  TIP3      H1            -59.4710905720       -2.8961524159        6.6712536648  W2        11240           0.0000000000
     32889     10963  TIP3      H2            -58.4693405720       -3.1059924159        7.7867536648  W2        11240           0.0000000000
     32890     10964  TIP3      OH2           -57.9538805720       -4.3536224159        9.0087536648  W2        11241           0.0000000000
     32891     10964  TIP3      H1            -58.2882005720       -5.2338924159        9.1807736648  W2        11241           0.0000000000
     32892     10964  TIP3      H2            -57.7316405720       -4.0081224159        9.8733136648  W2        11241           0.0000000000
     32893     10965  TIP3      OH2           -40.4054005720       -3.5439824159       11.9892336648  W2        11242           0.0000000000
     32894     10965  TIP3      H1            -40.4267305720       -3.3591424159       12.9281736648  W2        11242           0.0000000000
     32895     10965  TIP3      H2            -39.7147805720       -2.9755824159       11.6483736648  W2        11242           0.0000000000
     32896     10966  TIP3      OH2           -40.8421105720       -3.9768724159       14.9111436648  W2        11243           0.0000000000
     32897     10966  TIP3      H1            -41.3292405720       -4.7124624159       14.5398836648  W2        11243           0.0000000000
     32898     10966  TIP3      H2            -40.2928405720       -4.3704824159       15.5890836648  W2        11243           0.0000000000
     32899     10967  TIP3      OH2           -41.0904105720       -9.9306924159        5.0634236648  W2        11245           0.0000000000
     32900     10967  TIP3      H1            -40.2402705720       -9.5096024159        5.1905836648  W2        11245           0.0000000000
     32901     10967  TIP3      H2            -41.0849005720      -10.6706824159        5.6705636648  W2        11245           0.0000000000
     32902     10968  TIP3      OH2           -40.6958505720      -11.8769524159        6.8869936648  W2        11246           0.0000000000
     32903     10968  TIP3      H1            -41.4223905720      -12.3566924159        7.2847536648  W2        11246           0.0000000000
     32904     10968  TIP3      H2            -40.1145205720      -11.6714824159        7.6191536648  W2        11246           0.0000000000
     32905     10969  TIP3      OH2           -40.9367305720       -9.0922024159       11.8347536648  W2        11247           0.0000000000
     32906     10969  TIP3      H1            -40.1033105720       -9.4702024159       11.5541136648  W2        11247           0.0000000000
     32907     10969  TIP3      H2            -40.8247005720       -8.1490824159       11.7156636648  W2        11247           0.0000000000
     32908     10970  TIP3      OH2           -42.4505005720       -6.2144524159       14.1415936648  W2        11248           0.0000000000
     32909     10970  TIP3      H1            -43.0979705720       -5.8893024159       14.7671136648  W2        11248           0.0000000000
     32910     10970  TIP3      H2            -42.9681005720       -6.6546824159       13.4674236648  W2        11248           0.0000000000
     32911     10971  TIP3      OH2           -40.4275405720      -11.9761024159        3.2781236648  W2        11249           0.0000000000
     32912     10971  TIP3      H1            -40.9494305720      -11.6196924159        2.5592136648  W2        11249           0.0000000000
     32913     10971  TIP3      H2            -40.4606205720      -11.3013224159        3.9562136648  W2        11249           0.0000000000
     32914     10972  TIP3      OH2           -42.0786405720      -14.7365424159        1.8288336648  W2        11250           0.0000000000
     32915     10972  TIP3      H1            -41.9822005720      -14.0698424159        1.1488036648  W2        11250           0.0000000000
     32916     10972  TIP3      H2            -42.2186805720      -15.5519124159        1.3473836648  W2        11250           0.0000000000
     32917     10973  TIP3      OH2           -42.9091705720      -13.3563024159        7.4498636648  W2        11251           0.0000000000
     32918     10973  TIP3      H1            -43.0592905720      -14.3014424159        7.4296436648  W2        11251           0.0000000000
     32919     10973  TIP3      H2            -43.2627205720      -13.0751624159        8.2937736648  W2        11251           0.0000000000
     32920     10974  TIP3      OH2           -57.8739305720      -11.2780824159       11.4602436648  W2        11252           0.0000000000
     32921     10974  TIP3      H1            -57.6896405720      -11.3599124159       10.5245336648  W2        11252           0.0000000000
     32922     10974  TIP3      H2            -57.0246405720      -11.4023824159       11.8838836648  W2        11252           0.0000000000
     32923     10975  TIP3      OH2           -42.0528805720      -11.3859724159       17.0886936648  W2        11253           0.0000000000
     32924     10975  TIP3      H1            -41.4701505720      -12.1207424159       17.2804136648  W2        11253           0.0000000000
     32925     10975  TIP3      H2            -41.4889505720      -10.6139424159       17.1352736648  W2        11253           0.0000000000
     32926     10976  TIP3      OH2           -40.5561705720      -13.4833924159       17.7732336648  W2        11254           0.0000000000
     32927     10976  TIP3      H1            -41.4195005720      -13.8621824159       17.6077036648  W2        11254           0.0000000000
     32928     10976  TIP3      H2            -39.9518005720      -14.2219124159       17.6988136648  W2        11254           0.0000000000
     32929     10977  TIP3      OH2           -42.8312605720      -17.3285624159        0.9463836648  W2        11255           0.0000000000
     32930     10977  TIP3      H1            -42.2206805720      -17.6998824159        1.5832036648  W2        11255           0.0000000000
     32931     10977  TIP3      H2            -43.6681105720      -17.7498724159        1.1423836648  W2        11255           0.0000000000
     32932     10978  TIP3      OH2           -43.1986905720      -15.7737224159        5.9123736648  W2        11256           0.0000000000
     32933     10978  TIP3      H1            -42.9189805720      -16.6806824159        6.0365436648  W2        11256           0.0000000000
     32934     10978  TIP3      H2            -42.4395205720      -15.3395724159        5.5232936648  W2        11256           0.0000000000
     32935     10979  TIP3      OH2           -42.5868605720      -15.1919824159       11.3482636648  W2        11257           0.0000000000
     32936     10979  TIP3      H1            -41.6540605720      -14.9799924159       11.3138636648  W2        11257           0.0000000000
     32937     10979  TIP3      H2            -42.8221105720      -15.0907724159       12.2705636648  W2        11257           0.0000000000
     32938     10980  TIP3      OH2           -42.5576705720      -14.4554524159       14.1242036648  W2        11258           0.0000000000
     32939     10980  TIP3      H1            -43.4005405720      -14.1874124159       14.4901836648  W2        11258           0.0000000000
     32940     10980  TIP3      H2            -42.1152405720      -13.6332624159       13.9133136648  W2        11258           0.0000000000
     32941     10981  TIP3      OH2           -58.2764505720      -16.0075824159       17.6011236648  W2        11259           0.0000000000
     32942     10981  TIP3      H1            -57.3569605720      -16.1297524159       17.8374336648  W2        11259           0.0000000000
     32943     10981  TIP3      H2            -58.7260005720      -16.7576124159       17.9904736648  W2        11259           0.0000000000
     32944     10982  TIP3      OH2           -42.5852105720      -18.5107924159        5.9605736648  W2        11261           0.0000000000
     32945     10982  TIP3      H1            -42.4027105720      -18.9596424159        6.7860736648  W2        11261           0.0000000000
     32946     10982  TIP3      H2            -43.1849205720      -19.0953524159        5.4970336648  W2        11261           0.0000000000
     32947     10983  TIP3      OH2           -57.0552005720      -17.6954224159       10.4924136648  W2        11262           0.0000000000
     32948     10983  TIP3      H1            -56.6100405720      -18.4871724159       10.7943836648  W2        11262           0.0000000000
     32949     10983  TIP3      H2            -56.5889005720      -16.9789024159       10.9229736648  W2        11262           0.0000000000
     32950     10984  TIP3      OH2           -58.7511705720      -14.6961224159       11.5614336648  W2        11263           0.0000000000
     32951     10984  TIP3      H1            -58.2591905720      -14.9170724159       10.7706336648  W2        11263           0.0000000000
     32952     10984  TIP3      H2            -58.3890805720      -13.8557824159       11.8423836648  W2        11263           0.0000000000
     32953     10985  TIP3      OH2           -40.7185905720      -18.4429824159        2.4886036648  W2        11265           0.0000000000
     32954     10985  TIP3      H1            -40.3063305720      -19.1644124159        2.0134036648  W2        11265           0.0000000000
     32955     10985  TIP3      H2            -40.0369405720      -17.7735224159        2.5470336648  W2        11265           0.0000000000
     32956     10986  TIP3      OH2           -58.4375205720      -18.4382124159        5.6156736648  W2        11266           0.0000000000
     32957     10986  TIP3      H1            -59.3626805720      -18.2295524159        5.4862236648  W2        11266           0.0000000000
     32958     10986  TIP3      H2            -57.9835305720      -17.9541324159        4.9259036648  W2        11266           0.0000000000
     32959     10987  TIP3      OH2           -43.6668005720       -3.4540424159        7.5614136648  W2        11267           0.0000000000
     32960     10987  TIP3      H1            -43.0145105720       -3.8018324159        6.9533236648  W2        11267           0.0000000000
     32961     10987  TIP3      H2            -43.1564205720       -2.9657224159        8.2073836648  W2        11267           0.0000000000
     32962     10988  TIP3      OH2           -58.4739805720      -19.7003124159       13.9599236648  W2        11268           0.0000000000
     32963     10988  TIP3      H1            -59.1389305720      -19.9462824159       14.6030136648  W2        11268           0.0000000000
     32964     10988  TIP3      H2            -58.9168505720      -19.0782724159       13.3827236648  W2        11268           0.0000000000
     32965     10989  TIP3      OH2           -53.3277605720       -5.5507824159       14.3629036648  W2        11270           0.0000000000
     32966     10989  TIP3      H1            -53.7526505720       -4.7409324159       14.0803636648  W2        11270           0.0000000000
     32967     10989  TIP3      H2            -52.4234805720       -5.4653724159       14.0608836648  W2        11270           0.0000000000
     32968     10990  TIP3      OH2           -49.0166205720       -4.1517824159       17.3222736648  W2        11271           0.0000000000
     32969     10990  TIP3      H1            -48.8318705720       -4.4851724159       18.2003036648  W2        11271           0.0000000000
     32970     10990  TIP3      H2            -48.1701705720       -3.8419224159       17.0001936648  W2        11271           0.0000000000
     32971     10991  TIP3      OH2           -46.6715805720       -2.8658924159       16.5664136648  W2        11272           0.0000000000
     32972     10991  TIP3      H1            -45.9946905720       -3.4986624159       16.3263336648  W2        11272           0.0000000000
     32973     10991  TIP3      H2            -46.3497005720       -2.4648424159       17.3737436648  W2        11272           0.0000000000
     32974     10992  TIP3      OH2           -41.7542005720      -20.2763424159       15.6459136648  W2        11273           0.0000000000
     32975     10992  TIP3      H1            -42.5668505720      -19.9513124159       15.2583836648  W2        11273           0.0000000000
     32976     10992  TIP3      H2            -41.5213505720      -21.0364924159       15.1128236648  W2        11273           0.0000000000
     32977     10993  TIP3      OH2           -55.9260905720       -2.2943924159       14.4104336648  W2        11274           0.0000000000
     32978     10993  TIP3      H1            -56.6464505720       -1.8542924159       13.9592036648  W2        11274           0.0000000000
     32979     10993  TIP3      H2            -56.2916905720       -2.5449224159       15.2588336648  W2        11274           0.0000000000
     32980     10994  TIP3      OH2           -53.4588305720       -2.6940024159       13.4401536648  W2        11275           0.0000000000
     32981     10994  TIP3      H1            -54.3236105720       -2.6221524159       13.8441636648  W2        11275           0.0000000000
     32982     10994  TIP3      H2            -53.5139305720       -2.1472724159       12.6564036648  W2        11275           0.0000000000
     32983     10995  TIP3      OH2           -48.7482705720       -2.8061124159       12.6157536648  W2        11276           0.0000000000
     32984     10995  TIP3      H1            -49.2048705720       -2.2771424159       11.9615936648  W2        11276           0.0000000000
     32985     10995  TIP3      H2            -48.5854705720       -2.2029724159       13.3409836648  W2        11276           0.0000000000
     32986     10996  TIP3      OH2           -46.4206405720       -3.9281524159       13.5607836648  W2        11277           0.0000000000
     32987     10996  TIP3      H1            -47.3252705720       -3.7631324159       13.2949936648  W2        11277           0.0000000000
     32988     10996  TIP3      H2            -45.9917805720       -3.0749324159       13.4951236648  W2        11277           0.0000000000
     32989     10997  TIP3      OH2           -43.8164505720       -2.3582424159       13.8555636648  W2        11278           0.0000000000
     32990     10997  TIP3      H1            -43.9982505720       -1.4423524159       13.6450536648  W2        11278           0.0000000000
     32991     10997  TIP3      H2            -43.6396705720       -2.7685324159       13.0090236648  W2        11278           0.0000000000
     32992     10998  TIP3      OH2           -56.5112805720       -3.6711424159       11.3206136648  W2        11279           0.0000000000
     32993     10998  TIP3      H1            -56.5296805720       -4.0966324159       12.1778436648  W2        11279           0.0000000000
     32994     10998  TIP3      H2            -55.7064905720       -3.9896424159       10.9118336648  W2        11279           0.0000000000
     32995     10999  TIP3      OH2           -54.3699705720       -4.9612724159        9.9756036648  W2        11280           0.0000000000
     32996     10999  TIP3      H1            -54.5889005720       -5.8775324159       10.1452036648  W2        11280           0.0000000000
     32997     10999  TIP3      H2            -53.5457505720       -4.8212324159       10.4417436648  W2        11280           0.0000000000
     32998     11000  TIP3      OH2           -51.8327205720       -4.4913424159       10.8244036648  W2        11281           0.0000000000
     32999     11000  TIP3      H1            -51.6201505720       -5.3794424159       10.5374936648  W2        11281           0.0000000000
     33000     11000  TIP3      H2            -51.7682105720       -4.5255724159       11.7788036648  W2        11281           0.0000000000
     33001     11001  TIP3      OH2           -48.3243505720      -18.8272824159        9.9687336648  W2        11282           0.0000000000
     33002     11001  TIP3      H1            -48.9986705720      -19.4567224159       10.2243136648  W2        11282           0.0000000000
     33003     11001  TIP3      H2            -47.7604305720      -19.3113924159        9.3655236648  W2        11282           0.0000000000
     33004     11002  TIP3      OH2           -43.1816305720      -20.7198824159       10.0814436648  W2        11283           0.0000000000
     33005     11002  TIP3      H1            -42.5778705720      -20.1723424159        9.5795436648  W2        11283           0.0000000000
     33006     11002  TIP3      H2            -44.0514305720      -20.4008424159        9.8408536648  W2        11283           0.0000000000
     33007     11003  TIP3      OH2           -41.4545905720      -19.5810124159        8.4145336648  W2        11284           0.0000000000
     33008     11003  TIP3      H1            -40.8428405720      -20.0954424159        7.8878936648  W2        11284           0.0000000000
     33009     11003  TIP3      H2            -41.0722505720      -18.7038024159        8.4379736648  W2        11284           0.0000000000
     33010     11004  TIP3      OH2           -55.9976005720      -20.1932524159        7.7907236648  W2        11285           0.0000000000
     33011     11004  TIP3      H1            -56.7746205720      -20.4277624159        7.2833136648  W2        11285           0.0000000000
     33012     11004  TIP3      H2            -55.4672405720      -20.9900424159        7.7995236648  W2        11285           0.0000000000
     33013     11005  TIP3      OH2           -57.1612605720      -20.3954424159        3.5943336648  W2        11286           0.0000000000
     33014     11005  TIP3      H1            -56.7221905720      -19.7843924159        3.0026836648  W2        11286           0.0000000000
     33015     11005  TIP3      H2            -57.7950205720      -19.8570324159        4.0683336648  W2        11286           0.0000000000
     33016     11006  TIP3      OH2           -51.4183405720      -20.2665424159        7.6040336648  W2        11287           0.0000000000
     33017     11006  TIP3      H1            -50.5440005720      -19.8781124159        7.5744636648  W2        11287           0.0000000000
     33018     11006  TIP3      H2            -51.5542605720      -20.4817624159        8.5267536648  W2        11287           0.0000000000
     33019     11007  TIP3      OH2           -45.8615005720      -20.2365624159        9.2532036648  W2        11288           0.0000000000
     33020     11007  TIP3      H1            -45.7853405720      -20.1414024159        8.3038036648  W2        11288           0.0000000000
     33021     11007  TIP3      H2            -46.1365805720      -21.1442724159        9.3821136648  W2        11288           0.0000000000
     33022     11008  TIP3      OH2           -44.5082405720      -20.2107824159        4.9457036648  W2        11289           0.0000000000
     33023     11008  TIP3      H1            -45.2111305720      -19.5958624159        4.7358436648  W2        11289           0.0000000000
     33024     11008  TIP3      H2            -44.9531005720      -21.0481124159        5.0767936648  W2        11289           0.0000000000
     33025     11009  TIP3      OH2           -57.2603105720       -4.4472224159        4.4918436648  W2        11290           0.0000000000
     33026     11009  TIP3      H1            -57.9453205720       -4.4853324159        3.8243536648  W2        11290           0.0000000000
     33027     11009  TIP3      H2            -57.2565905720       -3.5344624159        4.7800536648  W2        11290           0.0000000000
     33028     11010  TIP3      OH2           -55.3003505720      -18.4792924159        2.0367436648  W2        11291           0.0000000000
     33029     11010  TIP3      H1            -54.8090105720      -19.1090524159        1.5092936648  W2        11291           0.0000000000
     33030     11010  TIP3      H2            -54.6767205720      -18.1833524159        2.6998636648  W2        11291           0.0000000000
     33031     11011  TIP3      OH2           -50.2743405720      -18.1861424159        4.4937936648  W2        11292           0.0000000000
     33032     11011  TIP3      H1            -50.0962105720      -18.8328224159        5.1766536648  W2        11292           0.0000000000
     33033     11011  TIP3      H2            -50.3277205720      -17.3523724159        4.9609036648  W2        11292           0.0000000000
     33034     11012  TIP3      OH2           -48.3959605720       -3.2377324159        2.8894636648  W2        11293           0.0000000000
     33035     11012  TIP3      H1            -47.5299405720       -2.8709924159        2.7112836648  W2        11293           0.0000000000
     33036     11012  TIP3      H2            -48.6426805720       -3.6769324159        2.0755436648  W2        11293           0.0000000000
     33037     11013  TIP3      OH2           -41.6870005720       -3.6747024159        5.5685736648  W2        11294           0.0000000000
     33038     11013  TIP3      H1            -41.8812905720       -4.4224924159        5.0035336648  W2        11294           0.0000000000
     33039     11013  TIP3      H2            -41.7259905720       -2.9166924159        4.9853636648  W2        11294           0.0000000000
     33040     11014  TIP3      OH2           -56.0398005720      -19.6790624159       17.3083436648  W2        11295           0.0000000000
     33041     11014  TIP3      H1            -56.4059805720      -20.4448024159       17.7508136648  W2        11295           0.0000000000
     33042     11014  TIP3      H2            -55.1269505720      -19.6500424159       17.5948536648  W2        11295           0.0000000000
     33043     11015  TIP3      OH2           -55.4421905720       -3.5271424159        1.5170536648  W2        11297           0.0000000000
     33044     11015  TIP3      H1            -55.7097305720       -3.2408524159        2.3903636648  W2        11297           0.0000000000
     33045     11015  TIP3      H2            -54.6709305720       -4.0732224159        1.6693036648  W2        11297           0.0000000000
     33046     11016  TIP3      OH2           -42.4693805720       -4.9234624159       17.7187536648  W2        11299           0.0000000000
     33047     11016  TIP3      H1            -43.2511905720       -5.1096624159       17.1988136648  W2        11299           0.0000000000
     33048     11016  TIP3      H2            -42.5413905720       -3.9940324159       17.9360036648  W2        11299           0.0000000000
     33049     11017  TIP3      OH2           -28.0633405720      -11.0370224159        7.7494736648  W2        11300           0.0000000000
     33050     11017  TIP3      H1            -27.9742305720      -10.0932024159        7.6171836648  W2        11300           0.0000000000
     33051     11017  TIP3      H2            -28.7015805720      -11.3123824159        7.0914136648  W2        11300           0.0000000000
     33052     11018  TIP3      OH2           -29.1302105720      -11.7819524159       11.1682936648  W2        11301           0.0000000000
     33053     11018  TIP3      H1            -29.1684605720      -12.4283224159       11.8732536648  W2        11301           0.0000000000
     33054     11018  TIP3      H2            -29.4525605720      -12.2485124159       10.3971636648  W2        11301           0.0000000000
     33055     11019  TIP3      OH2           -36.7617105720      -12.1677424159       12.7612836648  W2        11302           0.0000000000
     33056     11019  TIP3      H1            -36.7205005720      -12.7934124159       13.4845236648  W2        11302           0.0000000000
     33057     11019  TIP3      H2            -36.0589405720      -11.5438824159       12.9433236648  W2        11302           0.0000000000
     33058     11020  TIP3      OH2           -25.4241905720       -8.8429124159        9.4698036648  W2        11303           0.0000000000
     33059     11020  TIP3      H1            -25.8649205720       -9.5633124159        9.9203636648  W2        11303           0.0000000000
     33060     11020  TIP3      H2            -25.4372205720       -8.1221924159       10.0995736648  W2        11303           0.0000000000
     33061     11021  TIP3      OH2           -35.8384005720       -7.7178524159       11.2961936648  W2        11304           0.0000000000
     33062     11021  TIP3      H1            -36.2078805720       -8.5198024159       10.9266236648  W2        11304           0.0000000000
     33063     11021  TIP3      H2            -34.8972905720       -7.8863624159       11.3425336648  W2        11304           0.0000000000
     33064     11022  TIP3      OH2           -39.2283505720      -14.0575924159        6.6890736648  W2        11305           0.0000000000
     33065     11022  TIP3      H1            -39.6760105720      -13.2117224159        6.6707236648  W2        11305           0.0000000000
     33066     11022  TIP3      H2            -39.7892305720      -14.6371724159        6.1735836648  W2        11305           0.0000000000
     33067     11023  TIP3      OH2           -38.5177405720      -11.8956324159        8.8148736648  W2        11306           0.0000000000
     33068     11023  TIP3      H1            -38.3043905720      -12.6654724159        9.3421736648  W2        11306           0.0000000000
     33069     11023  TIP3      H2            -37.7799805720      -11.8059624159        8.2116336648  W2        11306           0.0000000000
     33070     11024  TIP3      OH2           -28.3126405720       -3.7387424159        9.6818436648  W2        11307           0.0000000000
     33071     11024  TIP3      H1            -27.6930005720       -4.4152724159        9.4087636648  W2        11307           0.0000000000
     33072     11024  TIP3      H2            -28.5209005720       -3.9566624159       10.5903336648  W2        11307           0.0000000000
     33073     11025  TIP3      OH2           -30.7407705720       -9.3498124159       11.5743936648  W2        11308           0.0000000000
     33074     11025  TIP3      H1            -30.4369805720      -10.0356724159       10.9798036648  W2        11308           0.0000000000
     33075     11025  TIP3      H2            -30.0193705720       -9.2309424159       12.1921936648  W2        11308           0.0000000000
     33076     11026  TIP3      OH2           -22.0777905720      -17.7482824159       12.4350136648  W2        11309           0.0000000000
     33077     11026  TIP3      H1            -22.0285705720      -17.1381624159       13.1709236648  W2        11309           0.0000000000
     33078     11026  TIP3      H2            -21.6522805720      -17.2871924159       11.7121236648  W2        11309           0.0000000000
     33079     11027  TIP3      OH2           -27.6000705720      -14.9555724159       11.9018736648  W2        11310           0.0000000000
     33080     11027  TIP3      H1            -27.4574805720      -15.9018724159       11.9220336648  W2        11310           0.0000000000
     33081     11027  TIP3      H2            -27.7061705720      -14.7485924159       10.9733636648  W2        11310           0.0000000000
     33082     11028  TIP3      OH2           -34.4452405720      -16.8539324159        9.1743536648  W2        11311           0.0000000000
     33083     11028  TIP3      H1            -34.4021305720      -15.9940824159        8.7559836648  W2        11311           0.0000000000
     33084     11028  TIP3      H2            -34.9028305720      -17.4064624159        8.5406736648  W2        11311           0.0000000000
     33085     11029  TIP3      OH2           -26.7229705720      -16.7233724159        7.5751836648  W2        11312           0.0000000000
     33086     11029  TIP3      H1            -26.0765405720      -17.0520524159        8.1999436648  W2        11312           0.0000000000
     33087     11029  TIP3      H2            -26.2130305720      -16.2054724159        6.9523236648  W2        11312           0.0000000000
     33088     11030  TIP3      OH2           -37.8250905720      -14.4573524159        9.9364936648  W2        11313           0.0000000000
     33089     11030  TIP3      H1            -37.1714305720      -15.0071824159       10.3685036648  W2        11313           0.0000000000
     33090     11030  TIP3      H2            -37.8011605720      -14.7314524159        9.0196936648  W2        11313           0.0000000000
     33091     11031  TIP3      OH2           -32.6686405720      -12.9072224159        9.1516436648  W2        11314           0.0000000000
     33092     11031  TIP3      H1            -32.0525405720      -13.4336824159        9.6610436648  W2        11314           0.0000000000
     33093     11031  TIP3      H2            -33.2547605720      -13.5473524159        8.7480036648  W2        11314           0.0000000000
     33094     11032  TIP3      OH2           -21.6863305720      -16.2703624159       14.6709936648  W2        11315           0.0000000000
     33095     11032  TIP3      H1            -22.3748705720      -15.6122924159       14.5756536648  W2        11315           0.0000000000
     33096     11032  TIP3      H2            -21.6708705720      -16.4675724159       15.6075336648  W2        11315           0.0000000000
     33097     11033  TIP3      OH2           -35.6350505720      -17.9360924159       13.2484336648  W2        11316           0.0000000000
     33098     11033  TIP3      H1            -35.8538805720      -17.4060324159       12.4820336648  W2        11316           0.0000000000
     33099     11033  TIP3      H2            -36.3029605720      -17.7095424159       13.8955736648  W2        11316           0.0000000000
     33100     11034  TIP3      OH2           -28.2660705720       -8.4359824159        6.7923436648  W2        11317           0.0000000000
     33101     11034  TIP3      H1            -28.5615605720       -8.7587524159        5.9410336648  W2        11317           0.0000000000
     33102     11034  TIP3      H2            -28.5902905720       -7.5363124159        6.8336036648  W2        11317           0.0000000000
     33103     11035  TIP3      OH2           -33.0659105720      -10.2605224159       13.5358036648  W2        11318           0.0000000000
     33104     11035  TIP3      H1            -33.8060005720       -9.6623724159       13.6393236648  W2        11318           0.0000000000
     33105     11035  TIP3      H2            -32.3519605720       -9.7065624159       13.2201636648  W2        11318           0.0000000000
     33106     11036  TIP3      OH2           -24.9591305720      -17.4324424159        9.5557736648  W2        11319           0.0000000000
     33107     11036  TIP3      H1            -25.1743305720      -18.1981024159       10.0883736648  W2        11319           0.0000000000
     33108     11036  TIP3      H2            -24.3033905720      -16.9599824159       10.0686236648  W2        11319           0.0000000000
     33109     11037  TIP3      OH2           -36.0413205720      -16.0439124159       11.2006536648  W2        11320           0.0000000000
     33110     11037  TIP3      H1            -35.4276905720      -15.4111524159       11.5738936648  W2        11320           0.0000000000
     33111     11037  TIP3      H2            -35.5292505720      -16.5164124159       10.5443436648  W2        11320           0.0000000000
     33112     11038  TIP3      OH2           -34.6584805720       -8.2962224159       14.3229536648  W2        11321           0.0000000000
     33113     11038  TIP3      H1            -34.6637205720       -7.4168724159       13.9448836648  W2        11321           0.0000000000
     33114     11038  TIP3      H2            -35.5120705720       -8.3798124159       14.7479436648  W2        11321           0.0000000000
     33115     11039  TIP3      OH2           -38.5373905720       -8.6254324159        5.1048836648  W2        11322           0.0000000000
     33116     11039  TIP3      H1            -38.8093005720       -8.3963324159        4.2161736648  W2        11322           0.0000000000
     33117     11039  TIP3      H2            -38.4918205720       -7.7875524159        5.5654136648  W2        11322           0.0000000000
     33118     11040  TIP3      OH2           -24.9124205720       -7.0038424159       11.8177336648  W2        11323           0.0000000000
     33119     11040  TIP3      H1            -25.8540505720       -6.9454524159       11.9794236648  W2        11323           0.0000000000
     33120     11040  TIP3      H2            -24.6358105720       -6.0977924159       11.6807036648  W2        11323           0.0000000000
     33121     11041  TIP3      OH2           -24.6117205720      -18.7173124159       13.2351236648  W2        11324           0.0000000000
     33122     11041  TIP3      H1            -25.3478005720      -18.1066024159       13.1972536648  W2        11324           0.0000000000
     33123     11041  TIP3      H2            -23.9283205720      -18.3024124159       12.7087636648  W2        11324           0.0000000000
     33124     11042  TIP3      OH2           -31.6085805720      -20.6305824159       10.7009236648  W2        11325           0.0000000000
     33125     11042  TIP3      H1            -31.7261605720      -21.5789824159       10.6467536648  W2        11325           0.0000000000
     33126     11042  TIP3      H2            -32.4635705720      -20.2979724159       10.9740336648  W2        11325           0.0000000000
     33127     11043  TIP3      OH2           -26.6603005720       -5.2224924159        8.4428936648  W2        11326           0.0000000000
     33128     11043  TIP3      H1            -26.2350705720       -5.9297024159        7.9578536648  W2        11326           0.0000000000
     33129     11043  TIP3      H2            -26.3433005720       -4.4212224159        8.0261136648  W2        11326           0.0000000000
     33130     11044  TIP3      OH2           -25.5006505720       -7.3216424159        6.9515536648  W2        11327           0.0000000000
     33131     11044  TIP3      H1            -25.7581705720       -8.0116324159        6.3401436648  W2        11327           0.0000000000
     33132     11044  TIP3      H2            -25.4295705720       -7.7645224159        7.7971436648  W2        11327           0.0000000000
     33133     11045  TIP3      OH2           -23.8146305720       -8.7549724159       15.4289036648  W2        11328           0.0000000000
     33134     11045  TIP3      H1            -23.6750005720       -9.3467224159       14.6896036648  W2        11328           0.0000000000
     33135     11045  TIP3      H2            -23.6473505720       -7.8823824159       15.0727836648  W2        11328           0.0000000000
     33136     11046  TIP3      OH2           -29.3420905720      -11.7930224159        5.2015036648  W2        11329           0.0000000000
     33137     11046  TIP3      H1            -30.0535405720      -11.2580524159        4.8495536648  W2        11329           0.0000000000
     33138     11046  TIP3      H2            -28.6511305720      -11.7378124159        4.5413936648  W2        11329           0.0000000000
     33139     11047  TIP3      OH2           -29.2881705720      -13.3355924159        2.2400036648  W2        11330           0.0000000000
     33140     11047  TIP3      H1            -28.5871805720      -13.3129024159        2.8914036648  W2        11330           0.0000000000
     33141     11047  TIP3      H2            -28.9858805720      -13.9636224159        1.5839336648  W2        11330           0.0000000000
     33142     11048  TIP3      OH2           -21.9727005720      -12.4151724159       13.4949436648  W2        11331           0.0000000000
     33143     11048  TIP3      H1            -22.6252905720      -11.7206124159       13.5840336648  W2        11331           0.0000000000
     33144     11048  TIP3      H2            -21.5076705720      -12.2050824159       12.6851036648  W2        11331           0.0000000000
     33145     11049  TIP3      OH2           -25.9363205720      -11.5836924159        6.1530936648  W2        11332           0.0000000000
     33146     11049  TIP3      H1            -26.6682205720      -11.3553224159        6.7261536648  W2        11332           0.0000000000
     33147     11049  TIP3      H2            -25.4891005720      -12.2974224159        6.6078436648  W2        11332           0.0000000000
     33148     11050  TIP3      OH2           -26.0389705720      -13.4094324159       15.2207936648  W2        11333           0.0000000000
     33149     11050  TIP3      H1            -25.9590605720      -12.6459924159       15.7926436648  W2        11333           0.0000000000
     33150     11050  TIP3      H2            -26.6402005720      -13.1301924159       14.5303036648  W2        11333           0.0000000000
     33151     11051  TIP3      OH2           -34.2909505720      -10.9530724159        8.0355936648  W2        11334           0.0000000000
     33152     11051  TIP3      H1            -34.6214305720      -11.3237324159        7.2172936648  W2        11334           0.0000000000
     33153     11051  TIP3      H2            -33.7025405720      -11.6236724159        8.3824236648  W2        11334           0.0000000000
     33154     11052  TIP3      OH2           -32.9242005720       -7.5250124159       10.7168136648  W2        11335           0.0000000000
     33155     11052  TIP3      H1            -33.0190705720       -8.1037024159        9.9602736648  W2        11335           0.0000000000
     33156     11052  TIP3      H2            -32.1948405720       -7.8964424159       11.2130936648  W2        11335           0.0000000000
     33157     11053  TIP3      OH2           -33.9244005720      -12.1845124159       11.6690936648  W2        11336           0.0000000000
     33158     11053  TIP3      H1            -33.3591505720      -12.0630924159       10.9062136648  W2        11336           0.0000000000
     33159     11053  TIP3      H2            -33.6055105720      -11.5470124159       12.3079436648  W2        11336           0.0000000000
     33160     11054  TIP3      OH2           -27.6151805720       -6.6813224159       12.4031436648  W2        11337           0.0000000000
     33161     11054  TIP3      H1            -27.8555205720       -6.0190124159       13.0510636648  W2        11337           0.0000000000
     33162     11054  TIP3      H2            -27.8133605720       -7.5158024159       12.8281036648  W2        11337           0.0000000000
     33163     11055  TIP3      OH2           -33.0443305720       -7.7852424159       16.3862836648  W2        11338           0.0000000000
     33164     11055  TIP3      H1            -33.3555805720       -7.0029224159       16.8416036648  W2        11338           0.0000000000
     33165     11055  TIP3      H2            -33.6943105720       -7.9383324159       15.7004836648  W2        11338           0.0000000000
     33166     11056  TIP3      OH2           -27.0653705720      -12.4214024159        3.8382136648  W2        11339           0.0000000000
     33167     11056  TIP3      H1            -26.4858205720      -12.2713724159        4.5851036648  W2        11339           0.0000000000
     33168     11056  TIP3      H2            -26.6513705720      -11.9506624159        3.1148536648  W2        11339           0.0000000000
     33169     11057  TIP3      OH2           -36.1243405720      -11.5871324159       15.6148536648  W2        11340           0.0000000000
     33170     11057  TIP3      H1            -36.0540205720      -10.9364524159       16.3133536648  W2        11340           0.0000000000
     33171     11057  TIP3      H2            -37.0151205720      -11.4843824159       15.2799436648  W2        11340           0.0000000000
     33172     11058  TIP3      OH2           -29.3388805720       -5.6845524159        7.2735236648  W2        11341           0.0000000000
     33173     11058  TIP3      H1            -28.8651205720       -5.3889224159        8.0509436648  W2        11341           0.0000000000
     33174     11058  TIP3      H2            -29.9019505720       -4.9463924159        7.0404836648  W2        11341           0.0000000000
     33175     11059  TIP3      OH2           -34.8047405720       -5.7137424159       17.1496636648  W2        11342           0.0000000000
     33176     11059  TIP3      H1            -34.7972105720       -5.8497724159       16.2022136648  W2        11342           0.0000000000
     33177     11059  TIP3      H2            -35.7207005720       -5.8309324159       17.4016636648  W2        11342           0.0000000000
     33178     11060  TIP3      OH2           -23.3665305720      -20.6713624159        3.6511836648  W2        11343           0.0000000000
     33179     11060  TIP3      H1            -24.2664605720      -20.5324624159        3.9462436648  W2        11343           0.0000000000
     33180     11060  TIP3      H2            -23.1146905720      -19.8399024159        3.2493536648  W2        11343           0.0000000000
     33181     11061  TIP3      OH2           -35.3006805720      -11.8836424159        5.6248736648  W2        11344           0.0000000000
     33182     11061  TIP3      H1            -35.5925505720      -11.1154724159        5.1340036648  W2        11344           0.0000000000
     33183     11061  TIP3      H2            -35.9751605720      -12.5430224159        5.4620136648  W2        11344           0.0000000000
     33184     11062  TIP3      OH2           -22.1773905720       -6.3051224159        2.0275736648  W2        11345           0.0000000000
     33185     11062  TIP3      H1            -22.1040405720       -5.3661024159        2.1981036648  W2        11345           0.0000000000
     33186     11062  TIP3      H2            -21.2718805720       -6.6102624159        1.9713036648  W2        11345           0.0000000000
     33187     11063  TIP3      OH2           -39.2076705720       -9.5207224159       14.4398536648  W2        11346           0.0000000000
     33188     11063  TIP3      H1            -39.7088305720       -9.5487824159       13.6248236648  W2        11346           0.0000000000
     33189     11063  TIP3      H2            -39.2023005720      -10.4264024159       14.7495836648  W2        11346           0.0000000000
     33190     11064  TIP3      OH2           -39.4574005720       -6.7403424159       11.3238736648  W2        11347           0.0000000000
     33191     11064  TIP3      H1            -38.5113405720       -6.8846424159       11.3048236648  W2        11347           0.0000000000
     33192     11064  TIP3      H2            -39.5697705720       -5.9560624159       11.8609936648  W2        11347           0.0000000000
     33193     11065  TIP3      OH2           -21.2595505720       -6.0743724159       17.0062436648  W2        11348           0.0000000000
     33194     11065  TIP3      H1            -21.3088705720       -7.0295624159       16.9690036648  W2        11348           0.0000000000
     33195     11065  TIP3      H2            -22.0863205720       -5.8068424159       17.4076236648  W2        11348           0.0000000000
     33196     11066  TIP3      OH2           -30.2811505720       -6.5004524159       15.8823836648  W2        11349           0.0000000000
     33197     11066  TIP3      H1            -30.1936905720       -5.6739924159       16.3572936648  W2        11349           0.0000000000
     33198     11066  TIP3      H2            -31.1446405720       -6.8300724159       16.1313136648  W2        11349           0.0000000000
     33199     11067  TIP3      OH2           -29.8665705720       -2.7280824159        5.6884436648  W2        11350           0.0000000000
     33200     11067  TIP3      H1            -29.9419705720       -2.8493624159        4.7419636648  W2        11350           0.0000000000
     33201     11067  TIP3      H2            -29.8337005720       -1.7788124159        5.8069036648  W2        11350           0.0000000000
     33202     11068  TIP3      OH2           -36.2131905720       -3.9393824159        7.4693436648  W2        11351           0.0000000000
     33203     11068  TIP3      H1            -36.0611505720       -4.2873424159        8.3479936648  W2        11351           0.0000000000
     33204     11068  TIP3      H2            -37.0641505720       -4.2956524159        7.2140636648  W2        11351           0.0000000000
     33205     11069  TIP3      OH2           -26.7649705720       -3.5740624159        2.6906836648  W2        11352           0.0000000000
     33206     11069  TIP3      H1            -26.3901305720       -4.3184524159        2.2199436648  W2        11352           0.0000000000
     33207     11069  TIP3      H2            -26.7606005720       -3.8440024159        3.6090136648  W2        11352           0.0000000000
     33208     11070  TIP3      OH2           -27.0961605720       -3.6483524159        5.4399036648  W2        11353           0.0000000000
     33209     11070  TIP3      H1            -28.0311805720       -3.5481624159        5.6186036648  W2        11353           0.0000000000
     33210     11070  TIP3      H2            -26.8159705720       -4.3577524159        6.0182236648  W2        11353           0.0000000000
     33211     11071  TIP3      OH2           -24.1075705720      -14.5811224159       17.4864636648  W2        11354           0.0000000000
     33212     11071  TIP3      H1            -24.5148905720      -14.1005624159       16.7657936648  W2        11354           0.0000000000
     33213     11071  TIP3      H2            -24.0670005720      -15.4865224159       17.1785436648  W2        11354           0.0000000000
     33214     11072  TIP3      OH2           -36.9586205720       -8.1971824159       15.4831336648  W2        11355           0.0000000000
     33215     11072  TIP3      H1            -36.7424905720       -8.5586224159       16.3427136648  W2        11355           0.0000000000
     33216     11072  TIP3      H2            -37.8141505720       -8.5718024159       15.2734836648  W2        11355           0.0000000000
     33217     11073  TIP3      OH2           -34.3398205720      -19.7271324159       11.4785536648  W2        11356           0.0000000000
     33218     11073  TIP3      H1            -35.2014505720      -19.8143124159       11.0708436648  W2        11356           0.0000000000
     33219     11073  TIP3      H2            -34.3622505720      -18.8711224159       11.9063136648  W2        11356           0.0000000000
     33220     11074  TIP3      OH2           -29.6770405720      -20.0050924159       14.8532536648  W2        11357           0.0000000000
     33221     11074  TIP3      H1            -29.2567305720      -20.4203824159       15.6063136648  W2        11357           0.0000000000
     33222     11074  TIP3      H2            -30.6100805720      -20.1837624159       14.9704536648  W2        11357           0.0000000000
     33223     11075  TIP3      OH2           -26.3505505720      -16.2495724159       15.7067036648  W2        11358           0.0000000000
     33224     11075  TIP3      H1            -26.8646005720      -16.3753524159       16.5043036648  W2        11358           0.0000000000
     33225     11075  TIP3      H2            -26.5060805720      -15.3372624159       15.4623236648  W2        11358           0.0000000000
     33226     11076  TIP3      OH2           -25.5880605720      -11.3885724159        1.4680036648  W2        11359           0.0000000000
     33227     11076  TIP3      H1            -25.5459805720      -11.6111824159        0.5380036648  W2        11359           0.0000000000
     33228     11076  TIP3      H2            -24.7388505720      -10.9898624159        1.6579936648  W2        11359           0.0000000000
     33229     11077  TIP3      OH2           -30.0153105720      -17.5127524159        2.1383336648  W2        11360           0.0000000000
     33230     11077  TIP3      H1            -30.2688305720      -17.4935924159        3.0611436648  W2        11360           0.0000000000
     33231     11077  TIP3      H2            -30.2721005720      -18.3842124159        1.8369536648  W2        11360           0.0000000000
     33232     11078  TIP3      OH2           -34.2488105720      -14.7616824159       12.5735736648  W2        11361           0.0000000000
     33233     11078  TIP3      H1            -34.8906005720      -14.8019524159       13.2825836648  W2        11361           0.0000000000
     33234     11078  TIP3      H2            -34.2116105720      -13.8352124159       12.3358736648  W2        11361           0.0000000000
     33235     11079  TIP3      OH2           -34.2519005720      -14.5406724159        7.4855736648  W2        11362           0.0000000000
     33236     11079  TIP3      H1            -35.1446105720      -14.8810624159        7.4269536648  W2        11362           0.0000000000
     33237     11079  TIP3      H2            -33.8012405720      -14.9175824159        6.7298936648  W2        11362           0.0000000000
     33238     11080  TIP3      OH2           -28.7163505720      -14.1246424159        6.3026536648  W2        11363           0.0000000000
     33239     11080  TIP3      H1            -29.1253205720      -13.3097824159        6.0111336648  W2        11363           0.0000000000
     33240     11080  TIP3      H2            -27.9957305720      -14.2646324159        5.6883636648  W2        11363           0.0000000000
     33241     11081  TIP3      OH2           -29.6141905720      -13.9490024159       17.7907236648  W2        11364           0.0000000000
     33242     11081  TIP3      H1            -30.1768105720      -14.6538424159       18.1115036648  W2        11364           0.0000000000
     33243     11081  TIP3      H2            -28.7878505720      -14.0698124159       18.2584836648  W2        11364           0.0000000000
     33244     11082  TIP3      OH2           -27.7115805720      -14.6786024159        9.1166236648  W2        11365           0.0000000000
     33245     11082  TIP3      H1            -27.9071305720      -14.0729224159        8.4016836648  W2        11365           0.0000000000
     33246     11082  TIP3      H2            -27.5303205720      -15.5120824159        8.6822536648  W2        11365           0.0000000000
     33247     11083  TIP3      OH2           -36.4987605720      -14.4413324159       14.4407736648  W2        11366           0.0000000000
     33248     11083  TIP3      H1            -36.5368205720      -14.0411724159       15.3094836648  W2        11366           0.0000000000
     33249     11083  TIP3      H2            -36.9896505720      -15.2580924159       14.5310636648  W2        11366           0.0000000000
     33250     11084  TIP3      OH2           -33.1330205720      -17.0671024159        1.2393736648  W2        11367           0.0000000000
     33251     11084  TIP3      H1            -33.5639505720      -17.5120924159        1.9691136648  W2        11367           0.0000000000
     33252     11084  TIP3      H2            -33.8511505720      -16.6954724159        0.7271236648  W2        11367           0.0000000000
     33253     11085  TIP3      OH2           -39.8906805720      -17.3251524159        8.2912436648  W2        11368           0.0000000000
     33254     11085  TIP3      H1            -39.2599105720      -17.3539424159        9.0106336648  W2        11368           0.0000000000
     33255     11085  TIP3      H2            -39.4412505720      -17.7502824159        7.5608336648  W2        11368           0.0000000000
     33256     11086  TIP3      OH2           -38.6164705720      -16.5789524159        3.7152836648  W2        11369           0.0000000000
     33257     11086  TIP3      H1            -38.1423005720      -15.9879624159        3.1303736648  W2        11369           0.0000000000
     33258     11086  TIP3      H2            -39.3338305720      -16.0486624159        4.0622936648  W2        11369           0.0000000000
     33259     11087  TIP3      OH2           -28.4476605720      -13.0404724159       13.7878636648  W2        11370           0.0000000000
     33260     11087  TIP3      H1            -28.1241805720      -13.6715024159       13.1449136648  W2        11370           0.0000000000
     33261     11087  TIP3      H2            -28.8877305720      -13.5752524159       14.4486036648  W2        11370           0.0000000000
     33262     11088  TIP3      OH2           -31.6703705720      -17.1129224159        8.5719836648  W2        11371           0.0000000000
     33263     11088  TIP3      H1            -32.5812605720      -17.0562424159        8.8605836648  W2        11371           0.0000000000
     33264     11088  TIP3      H2            -31.1650805720      -17.1733724159        9.3827036648  W2        11371           0.0000000000
     33265     11089  TIP3      OH2           -36.8420305720      -15.4842924159        7.3987436648  W2        11372           0.0000000000
     33266     11089  TIP3      H1            -37.7312305720      -15.3847424159        7.0587036648  W2        11372           0.0000000000
     33267     11089  TIP3      H2            -36.5455405720      -16.3259924159        7.0525336648  W2        11372           0.0000000000
     33268     11090  TIP3      OH2           -33.1888505720      -15.4840324159        5.0552036648  W2        11373           0.0000000000
     33269     11090  TIP3      H1            -32.2573005720      -15.3550324159        5.2335136648  W2        11373           0.0000000000
     33270     11090  TIP3      H2            -33.4038205720      -14.8146024159        4.4056736648  W2        11373           0.0000000000
     33271     11091  TIP3      OH2           -27.2651805720      -17.8782924159       11.8361636648  W2        11374           0.0000000000
     33272     11091  TIP3      H1            -27.9420205720      -17.7469824159       12.5001336648  W2        11374           0.0000000000
     33273     11091  TIP3      H2            -27.7506905720      -18.0333424159       11.0259336648  W2        11374           0.0000000000
     33274     11092  TIP3      OH2           -34.5148305720      -14.2898124159        2.6218136648  W2        11375           0.0000000000
     33275     11092  TIP3      H1            -35.0573205720      -14.6694324159        1.9305736648  W2        11375           0.0000000000
     33276     11092  TIP3      H2            -33.6813405720      -14.0953424159        2.1932236648  W2        11375           0.0000000000
     33277     11093  TIP3      OH2           -36.3796905720       -9.7326224159       17.7209736648  W2        11377           0.0000000000
     33278     11093  TIP3      H1            -35.6474505720       -9.4780324159       18.2824236648  W2        11377           0.0000000000
     33279     11093  TIP3      H2            -37.1598205720       -9.5280824159       18.2365136648  W2        11377           0.0000000000
     33280     11094  TIP3      OH2           -30.3504005720      -14.3256224159       10.4589436648  W2        11378           0.0000000000
     33281     11094  TIP3      H1            -29.7860605720      -14.8719624159        9.9119036648  W2        11378           0.0000000000
     33282     11094  TIP3      H2            -30.4980605720      -14.8474324159       11.2477036648  W2        11378           0.0000000000
     33283     11095  TIP3      OH2           -35.3484305720      -18.1890124159        6.8774236648  W2        11379           0.0000000000
     33284     11095  TIP3      H1            -35.6654805720      -19.0914824159        6.8419636648  W2        11379           0.0000000000
     33285     11095  TIP3      H2            -34.5670205720      -18.1872724159        6.3245836648  W2        11379           0.0000000000
     33286     11096  TIP3      OH2           -31.7238105720      -15.9370124159       12.8729836648  W2        11380           0.0000000000
     33287     11096  TIP3      H1            -32.5592805720      -15.4830624159       12.9832236648  W2        11380           0.0000000000
     33288     11096  TIP3      H2            -31.1997505720      -15.6611624159       13.6249736648  W2        11380           0.0000000000
     33289     11097  TIP3      OH2           -31.1795505720       -9.7242424159        4.5576236648  W2        11381           0.0000000000
     33290     11097  TIP3      H1            -31.9244505720      -10.2317124159        4.2354136648  W2        11381           0.0000000000
     33291     11097  TIP3      H2            -31.3138305720       -9.6754424159        5.5041036648  W2        11381           0.0000000000
     33292     11098  TIP3      OH2           -24.0296605720      -10.5914224159       13.3443836648  W2        11382           0.0000000000
     33293     11098  TIP3      H1            -23.3877805720      -10.1347924159       12.8006036648  W2        11382           0.0000000000
     33294     11098  TIP3      H2            -24.8599705720      -10.4781824159       12.8817936648  W2        11382           0.0000000000
     33295     11099  TIP3      OH2           -27.2818705720      -16.9102524159        2.7568836648  W2        11383           0.0000000000
     33296     11099  TIP3      H1            -28.2204505720      -16.7986924159        2.6057636648  W2        11383           0.0000000000
     33297     11099  TIP3      H2            -26.9846605720      -16.0535624159        3.0634536648  W2        11383           0.0000000000
     33298     11100  TIP3      OH2           -29.6603405720       -9.5399124159       15.7945336648  W2        11384           0.0000000000
     33299     11100  TIP3      H1            -30.0057305720       -9.9216724159       16.6014936648  W2        11384           0.0000000000
     33300     11100  TIP3      H2            -29.8603305720       -8.6065524159       15.8658236648  W2        11384           0.0000000000
     33301     11101  TIP3      OH2           -26.5635205720      -15.0429824159        4.4176236648  W2        11385           0.0000000000
     33302     11101  TIP3      H1            -25.6716205720      -15.1804824159        4.7367436648  W2        11385           0.0000000000
     33303     11101  TIP3      H2            -26.5071605720      -14.2523724159        3.8809736648  W2        11385           0.0000000000
     33304     11102  TIP3      OH2           -36.0547205720      -10.4292424159       10.3274136648  W2        11386           0.0000000000
     33305     11102  TIP3      H1            -35.3100005720      -10.4316724159        9.7260636648  W2        11386           0.0000000000
     33306     11102  TIP3      H2            -35.9770605720      -11.2528624159       10.8089236648  W2        11386           0.0000000000
     33307     11103  TIP3      OH2           -29.0541405720       -8.2658124159        3.5830836648  W2        11387           0.0000000000
     33308     11103  TIP3      H1            -29.3493005720       -7.4390224159        3.9645636648  W2        11387           0.0000000000
     33309     11103  TIP3      H2            -29.7571405720       -8.8851224159        3.7792236648  W2        11387           0.0000000000
     33310     11104  TIP3      OH2           -39.0467505720      -11.9685524159       15.6422636648  W2        11388           0.0000000000
     33311     11104  TIP3      H1            -38.8238905720      -12.3865924159       16.4740136648  W2        11388           0.0000000000
     33312     11104  TIP3      H2            -39.6487405720      -12.5810524159       15.2195436648  W2        11388           0.0000000000
     33313     11105  TIP3      OH2           -27.4099805720       -7.0783624159       15.7450336648  W2        11390           0.0000000000
     33314     11105  TIP3      H1            -28.3105505720       -6.8951024159       15.4774236648  W2        11390           0.0000000000
     33315     11105  TIP3      H2            -27.3758705720       -6.8194324159       16.6659136648  W2        11390           0.0000000000
     33316     11106  TIP3      OH2           -21.6786505720      -14.8335724159        4.1122936648  W2        11391           0.0000000000
     33317     11106  TIP3      H1            -22.2330205720      -15.2297724159        3.4400436648  W2        11391           0.0000000000
     33318     11106  TIP3      H2            -21.5782905720      -13.9230524159        3.8346236648  W2        11391           0.0000000000
     33319     11107  TIP3      OH2           -21.7154505720       -9.0334024159       16.9494436648  W2        11392           0.0000000000
     33320     11107  TIP3      H1            -22.5666005720       -8.7950224159       16.5820836648  W2        11392           0.0000000000
     33321     11107  TIP3      H2            -21.1251105720       -9.0500824159       16.1961536648  W2        11392           0.0000000000
     33322     11108  TIP3      OH2           -23.3834805720       -6.0475324159        4.5775036648  W2        11393           0.0000000000
     33323     11108  TIP3      H1            -23.7563705720       -6.8731524159        4.8865636648  W2        11393           0.0000000000
     33324     11108  TIP3      H2            -23.1061305720       -6.2305924159        3.6798436648  W2        11393           0.0000000000
     33325     11109  TIP3      OH2           -26.2230905720      -11.2395824159       11.5986936648  W2        11394           0.0000000000
     33326     11109  TIP3      H1            -27.1514005720      -11.4713924159       11.5716236648  W2        11394           0.0000000000
     33327     11109  TIP3      H2            -25.7719805720      -12.0166024159       11.2685736648  W2        11394           0.0000000000
     33328     11110  TIP3      OH2           -33.6797805720       -6.9114224159        7.7315636648  W2        11395           0.0000000000
     33329     11110  TIP3      H1            -33.1525605720       -6.1379824159        7.5314436648  W2        11395           0.0000000000
     33330     11110  TIP3      H2            -34.5599305720       -6.6865024159        7.4299636648  W2        11395           0.0000000000
     33331     11111  TIP3      OH2           -37.9250105720      -12.0490124159        2.3188036648  W2        11396           0.0000000000
     33332     11111  TIP3      H1            -37.3090205720      -11.4222924159        2.6982836648  W2        11396           0.0000000000
     33333     11111  TIP3      H2            -38.7867505720      -11.7330324159        2.5904536648  W2        11396           0.0000000000
     33334     11112  TIP3      OH2           -32.2525505720       -9.2484324159        7.3079936648  W2        11397           0.0000000000
     33335     11112  TIP3      H1            -32.4935505720       -8.3229924159        7.3495236648  W2        11397           0.0000000000
     33336     11112  TIP3      H2            -32.9931905720       -9.7073024159        7.7043836648  W2        11397           0.0000000000
     33337     11113  TIP3      OH2           -31.7378905720       -5.0990724159       13.6231036648  W2        11398           0.0000000000
     33338     11113  TIP3      H1            -31.3754205720       -4.2445124159       13.3895436648  W2        11398           0.0000000000
     33339     11113  TIP3      H2            -31.2063705720       -5.3909124159       14.3637336648  W2        11398           0.0000000000
     33340     11114  TIP3      OH2           -33.5694705720       -4.2266724159        6.8532136648  W2        11399           0.0000000000
     33341     11114  TIP3      H1            -34.5194205720       -4.1209324159        6.9045436648  W2        11399           0.0000000000
     33342     11114  TIP3      H2            -33.2176605720       -3.4059324159        7.1979636648  W2        11399           0.0000000000
     33343     11115  TIP3      OH2           -28.1938105720       -9.0000024159       13.3236636648  W2        11400           0.0000000000
     33344     11115  TIP3      H1            -28.6196805720       -9.2278324159       14.1500636648  W2        11400           0.0000000000
     33345     11115  TIP3      H2            -27.6132305720       -9.7388224159       13.1411936648  W2        11400           0.0000000000
     33346     11116  TIP3      OH2           -25.9909205720       -8.0709524159        2.3975636648  W2        11401           0.0000000000
     33347     11116  TIP3      H1            -25.6376105720       -8.4509724159        3.2019136648  W2        11401           0.0000000000
     33348     11116  TIP3      H2            -26.9395705720       -8.1644724159        2.4844936648  W2        11401           0.0000000000
     33349     11117  TIP3      OH2           -25.5353905720       -4.4480524159       15.7931436648  W2        11402           0.0000000000
     33350     11117  TIP3      H1            -26.1370705720       -5.0037624159       15.2977736648  W2        11402           0.0000000000
     33351     11117  TIP3      H2            -25.2540205720       -3.7810724159       15.1668836648  W2        11402           0.0000000000
     33352     11118  TIP3      OH2           -21.4874805720       -3.5917024159        2.5985836648  W2        11403           0.0000000000
     33353     11118  TIP3      H1            -20.7436905720       -3.0056524159        2.4587436648  W2        11403           0.0000000000
     33354     11118  TIP3      H2            -22.1816705720       -3.0231224159        2.9318236648  W2        11403           0.0000000000
     33355     11119  TIP3      OH2           -37.4128005720      -17.2152824159       15.2004036648  W2        11404           0.0000000000
     33356     11119  TIP3      H1            -38.3055705720      -16.8767424159       15.1328036648  W2        11404           0.0000000000
     33357     11119  TIP3      H2            -37.5115205720      -18.0706724159       15.6184836648  W2        11404           0.0000000000
     33358     11120  TIP3      OH2           -25.1249905720       -9.3987524159        4.6243536648  W2        11405           0.0000000000
     33359     11120  TIP3      H1            -25.4022305720      -10.1268224159        5.1804636648  W2        11405           0.0000000000
     33360     11120  TIP3      H2            -24.1976905720       -9.2795524159        4.8296136648  W2        11405           0.0000000000
     33361     11121  TIP3      OH2           -37.7616005720       -5.4108424159       13.6353436648  W2        11406           0.0000000000
     33362     11121  TIP3      H1            -37.5445705720       -6.3426024159       13.6043136648  W2        11406           0.0000000000
     33363     11121  TIP3      H2            -37.5152505720       -5.1363424159       14.5186236648  W2        11406           0.0000000000
     33364     11122  TIP3      OH2           -31.9001405720       -6.9593424159        0.8445636648  W2        11407           0.0000000000
     33365     11122  TIP3      H1            -31.6611605720       -7.7075324159        0.2974536648  W2        11407           0.0000000000
     33366     11122  TIP3      H2            -32.1690105720       -7.3471724159        1.6773436648  W2        11407           0.0000000000
     33367     11123  TIP3      OH2           -32.9630805720       -7.3889624159        3.3008236648  W2        11408           0.0000000000
     33368     11123  TIP3      H1            -32.8162805720       -7.9089824159        4.0909136648  W2        11408           0.0000000000
     33369     11123  TIP3      H2            -32.9659105720       -6.4822024159        3.6074136648  W2        11408           0.0000000000
     33370     11124  TIP3      OH2           -36.5099705720      -10.1366324159        3.8113636648  W2        11409           0.0000000000
     33371     11124  TIP3      H1            -37.1960405720       -9.7843824159        4.3783336648  W2        11409           0.0000000000
     33372     11124  TIP3      H2            -35.9871805720       -9.3736724159        3.5647936648  W2        11409           0.0000000000
     33373     11125  TIP3      OH2           -28.6784605720      -17.4742524159       14.0902636648  W2        11410           0.0000000000
     33374     11125  TIP3      H1            -27.9796705720      -17.4003824159       14.7402336648  W2        11410           0.0000000000
     33375     11125  TIP3      H2            -29.0593205720      -18.3387524159       14.2445536648  W2        11410           0.0000000000
     33376     11126  TIP3      OH2           -27.8939705720      -17.8220824159        5.1874936648  W2        11411           0.0000000000
     33377     11126  TIP3      H1            -27.6741405720      -17.3505424159        4.3840336648  W2        11411           0.0000000000
     33378     11126  TIP3      H2            -27.3355705720      -17.4278224159        5.8575536648  W2        11411           0.0000000000
     33379     11127  TIP3      OH2           -30.2253605720       -5.6916024159        4.0502436648  W2        11412           0.0000000000
     33380     11127  TIP3      H1            -31.0417505720       -5.1946324159        4.1026736648  W2        11412           0.0000000000
     33381     11127  TIP3      H2            -29.6957305720       -5.2162524159        3.4101236648  W2        11412           0.0000000000
     33382     11128  TIP3      OH2           -30.6939805720      -16.0942024159        6.0223336648  W2        11413           0.0000000000
     33383     11128  TIP3      H1            -29.8817205720      -15.5898824159        6.0685036648  W2        11413           0.0000000000
     33384     11128  TIP3      H2            -30.9386805720      -16.2392324159        6.9362936648  W2        11413           0.0000000000
     33385     11129  TIP3      OH2           -30.1583405720      -15.1079324159       15.2069936648  W2        11414           0.0000000000
     33386     11129  TIP3      H1            -30.0393105720      -14.5343924159       15.9640336648  W2        11414           0.0000000000
     33387     11129  TIP3      H2            -29.5028805720      -15.7959924159       15.3217736648  W2        11414           0.0000000000
     33388     11130  TIP3      OH2           -29.8103105720      -19.0129024159        6.9604436648  W2        11415           0.0000000000
     33389     11130  TIP3      H1            -30.1569605720      -18.3958424159        7.6048736648  W2        11415           0.0000000000
     33390     11130  TIP3      H2            -29.1516205720      -18.5123324159        6.4789936648  W2        11415           0.0000000000
     33391     11131  TIP3      OH2           -32.8870505720       -4.6478824159        4.0319336648  W2        11416           0.0000000000
     33392     11131  TIP3      H1            -32.7261805720       -3.8481324159        3.5311936648  W2        11416           0.0000000000
     33393     11131  TIP3      H2            -33.0842705720       -4.3412824159        4.9169936648  W2        11416           0.0000000000
     33394     11132  TIP3      OH2           -34.1526105720      -17.9499624159        3.6476936648  W2        11417           0.0000000000
     33395     11132  TIP3      H1            -34.2361305720      -17.0616524159        3.9943336648  W2        11417           0.0000000000
     33396     11132  TIP3      H2            -33.2625805720      -18.2152924159        3.8793736648  W2        11417           0.0000000000
     33397     11133  TIP3      OH2           -23.9537605720      -17.2009024159       16.0419636648  W2        11418           0.0000000000
     33398     11133  TIP3      H1            -24.8701805720      -16.9387324159       15.9543336648  W2        11418           0.0000000000
     33399     11133  TIP3      H2            -23.6182605720      -17.2040024159       15.1454936648  W2        11418           0.0000000000
     33400     11134  TIP3      OH2           -25.3516605720      -13.4508024159       10.1376936648  W2        11419           0.0000000000
     33401     11134  TIP3      H1            -26.1492205720      -13.8657824159        9.8091936648  W2        11419           0.0000000000
     33402     11134  TIP3      H2            -24.9065505720      -14.1414324159       10.6287436648  W2        11419           0.0000000000
     33403     11135  TIP3      OH2           -35.8940805720       -7.5227424159        2.7081436648  W2        11420           0.0000000000
     33404     11135  TIP3      H1            -35.3019305720       -6.8232624159        2.9843836648  W2        11420           0.0000000000
     33405     11135  TIP3      H2            -35.4347805720       -7.9557924159        1.9886036648  W2        11420           0.0000000000
     33406     11136  TIP3      OH2           -37.5781605720      -14.8584424159        1.8240836648  W2        11421           0.0000000000
     33407     11136  TIP3      H1            -37.6229005720      -13.9191324159        2.0027836648  W2        11421           0.0000000000
     33408     11136  TIP3      H2            -38.4658405720      -15.0939524159        1.5542936648  W2        11421           0.0000000000
     33409     11137  TIP3      OH2           -24.2652005720       -4.1945524159       11.7600436648  W2        11422           0.0000000000
     33410     11137  TIP3      H1            -24.4207705720       -3.5161124159       11.1029736648  W2        11422           0.0000000000
     33411     11137  TIP3      H2            -23.3325605720       -4.1226224159       11.9631036648  W2        11422           0.0000000000
     33412     11138  TIP3      OH2           -36.7699605720      -20.0767824159       10.4971836648  W2        11423           0.0000000000
     33413     11138  TIP3      H1            -36.9989805720      -20.0175324159        9.5696836648  W2        11423           0.0000000000
     33414     11138  TIP3      H2            -37.2126205720      -20.8682324159       10.8035936648  W2        11423           0.0000000000
     33415     11139  TIP3      OH2           -37.8396305720       -6.1360724159        6.6577636648  W2        11424           0.0000000000
     33416     11139  TIP3      H1            -38.6717705720       -5.6638024159        6.6849036648  W2        11424           0.0000000000
     33417     11139  TIP3      H2            -37.2938005720       -5.6263124159        6.0590736648  W2        11424           0.0000000000
     33418     11140  TIP3      OH2           -29.8619605720       -5.0962024159        0.9831636648  W2        11427           0.0000000000
     33419     11140  TIP3      H1            -30.5058605720       -5.7273424159        1.3045336648  W2        11427           0.0000000000
     33420     11140  TIP3      H2            -29.1001305720       -5.6274024159        0.7515136648  W2        11427           0.0000000000
     33421     11141  TIP3      OH2           -25.2576705720       -5.2792124159        1.2169636648  W2        11429           0.0000000000
     33422     11141  TIP3      H1            -24.9746305720       -6.0736924159        1.6696536648  W2        11429           0.0000000000
     33423     11141  TIP3      H2            -24.5178805720       -5.0461124159        0.6560736648  W2        11429           0.0000000000
     33424     11142  TIP3      OH2           -34.3029405720       -9.3697224159        1.0744536648  W2        11431           0.0000000000
     33425     11142  TIP3      H1            -34.2385305720      -10.1637624159        1.6050936648  W2        11431           0.0000000000
     33426     11142  TIP3      H2            -33.6500205720       -9.4884424159        0.3846536648  W2        11431           0.0000000000
     33427     11143  TIP3      OH2           -28.9506005720       -8.3225524159        0.8102536648  W2        11433           0.0000000000
     33428     11143  TIP3      H1            -29.2191905720       -8.1423424159        1.7111436648  W2        11433           0.0000000000
     33429     11143  TIP3      H2            -29.1570405720       -9.2479324159        0.6788336648  W2        11433           0.0000000000
     33430     11144  TIP3      OH2           -26.2541805720       -9.8277524159       15.7578636648  W2        11434           0.0000000000
     33431     11144  TIP3      H1            -25.5087005720       -9.2393824159       15.6382636648  W2        11434           0.0000000000
     33432     11144  TIP3      H2            -27.0115005720       -9.2457824159       15.8211736648  W2        11434           0.0000000000
     33433     11145  TIP3      OH2           -33.1535605720      -11.3971024159        3.3802536648  W2        11436           0.0000000000
     33434     11145  TIP3      H1            -33.6133605720      -11.8812724159        4.0661036648  W2        11436           0.0000000000
     33435     11145  TIP3      H2            -32.8986905720      -12.0655624159        2.7443036648  W2        11436           0.0000000000
     33436     11146  TIP3      OH2           -33.8646305720      -13.5043924159       15.7362136648  W2        11437           0.0000000000
     33437     11146  TIP3      H1            -34.4830205720      -12.8297324159       16.0166836648  W2        11437           0.0000000000
     33438     11146  TIP3      H2            -33.5205105720      -13.1830024159       14.9028336648  W2        11437           0.0000000000
     33439     11147  TIP3      OH2           -32.0825205720      -13.1539224159        1.6425736648  W2        11438           0.0000000000
     33440     11147  TIP3      H1            -32.2630205720      -13.3088024159        0.7154036648  W2        11438           0.0000000000
     33441     11147  TIP3      H2            -31.1324705720      -13.0460524159        1.6873636648  W2        11438           0.0000000000
     33442     11148  TIP3      OH2           -22.6926905720      -10.7995024159        1.0883836648  W2        11440           0.0000000000
     33443     11148  TIP3      H1            -22.9662105720      -11.2239524159        0.2752136648  W2        11440           0.0000000000
     33444     11148  TIP3      H2            -22.6532805720       -9.8680524159        0.8714236648  W2        11440           0.0000000000
     33445     11149  TIP3      OH2           -33.5252605720      -16.1493124159       16.8185236648  W2        11441           0.0000000000
     33446     11149  TIP3      H1            -33.3751705720      -16.8781824159       16.2164936648  W2        11441           0.0000000000
     33447     11149  TIP3      H2            -33.5230205720      -15.3721424159       16.2597436648  W2        11441           0.0000000000
     33448     11150  TIP3      OH2           -33.1126905720      -17.7797324159       14.3112636648  W2        11442           0.0000000000
     33449     11150  TIP3      H1            -32.5769405720      -17.3280624159       13.6591936648  W2        11442           0.0000000000
     33450     11150  TIP3      H2            -33.9647305720      -17.8877524159       13.8886736648  W2        11442           0.0000000000
     33451     11151  TIP3      OH2           -31.5308505720      -12.3401124159       14.5507836648  W2        11443           0.0000000000
     33452     11151  TIP3      H1            -30.7803705720      -12.4963624159       13.9775636648  W2        11443           0.0000000000
     33453     11151  TIP3      H2            -31.8700205720      -11.4884524159       14.2753336648  W2        11443           0.0000000000
     33454     11152  TIP3      OH2           -25.7985105720      -11.7364124159       17.6565836648  W2        11445           0.0000000000
     33455     11152  TIP3      H1            -26.0800105720      -11.0269524159       17.0789636648  W2        11445           0.0000000000
     33456     11152  TIP3      H2            -24.8560805720      -11.8091124159       17.5057036648  W2        11445           0.0000000000
     33457     11153  TIP3      OH2           -32.3071405720      -20.3231624159       14.7426236648  W2        11447           0.0000000000
     33458     11153  TIP3      H1            -32.4051805720      -19.3768424159       14.6372436648  W2        11447           0.0000000000
     33459     11153  TIP3      H2            -33.0495205720      -20.6957824159       14.2669736648  W2        11447           0.0000000000
     33460     11154  TIP3      OH2           -28.3274305720      -16.8742724159       17.3818136648  W2        11449           0.0000000000
     33461     11154  TIP3      H1            -29.2748905720      -16.8423024159       17.5141436648  W2        11449           0.0000000000
     33462     11154  TIP3      H2            -28.0147605720      -17.4995624159       18.0356336648  W2        11449           0.0000000000
     33463     11155  TIP3      OH2           -32.0853305720      -21.0294224159       17.4139036648  W2        11452           0.0000000000
     33464     11155  TIP3      H1            -31.3734905720      -21.6692024159       17.3998136648  W2        11452           0.0000000000
     33465     11155  TIP3      H2            -32.1862905720      -20.7625924159       16.5002136648  W2        11452           0.0000000000
     33466     11156  TIP3      OH2           -32.1853505720       -2.4635524159        2.6439336648  W2        11454           0.0000000000
     33467     11156  TIP3      H1            -31.2522805720       -2.3056824159        2.7877736648  W2        11454           0.0000000000
     33468     11156  TIP3      H2            -32.4494705720       -1.7882524159        2.0190836648  W2        11454           0.0000000000
     33469     11157  TIP3      OH2           -38.6168605720       -7.8271724159        2.1267436648  W2        11455           0.0000000000
     33470     11157  TIP3      H1            -37.7029405720       -7.7482824159        2.4001336648  W2        11455           0.0000000000
     33471     11157  TIP3      H2            -38.6095505720       -8.5142124159        1.4603036648  W2        11455           0.0000000000
     33472     11158  TIP3      OH2           -39.9678005720       -2.4343224159        7.2041336648  W2        11456           0.0000000000
     33473     11158  TIP3      H1            -40.6150905720       -2.8961524159        6.6712536648  W2        11456           0.0000000000
     33474     11158  TIP3      H2            -39.6133405720       -3.1059924159        7.7867536648  W2        11456           0.0000000000
     33475     11159  TIP3      OH2           -39.0978805720       -4.3536224159        9.0087536648  W2        11457           0.0000000000
     33476     11159  TIP3      H1            -39.4322005720       -5.2338924159        9.1807736648  W2        11457           0.0000000000
     33477     11159  TIP3      H2            -38.8756405720       -4.0081224159        9.8733136648  W2        11457           0.0000000000
     33478     11160  TIP3      OH2           -21.5494005720       -3.5439824159       11.9892336648  W2        11458           0.0000000000
     33479     11160  TIP3      H1            -21.5707305720       -3.3591424159       12.9281736648  W2        11458           0.0000000000
     33480     11160  TIP3      H2            -20.8587805720       -2.9755824159       11.6483736648  W2        11458           0.0000000000
     33481     11161  TIP3      OH2           -21.9861105720       -3.9768724159       14.9111436648  W2        11459           0.0000000000
     33482     11161  TIP3      H1            -22.4732405720       -4.7124624159       14.5398836648  W2        11459           0.0000000000
     33483     11161  TIP3      H2            -21.4368405720       -4.3704824159       15.5890836648  W2        11459           0.0000000000
     33484     11162  TIP3      OH2           -22.2344105720       -9.9306924159        5.0634236648  W2        11461           0.0000000000
     33485     11162  TIP3      H1            -21.3842705720       -9.5096024159        5.1905836648  W2        11461           0.0000000000
     33486     11162  TIP3      H2            -22.2289005720      -10.6706824159        5.6705636648  W2        11461           0.0000000000
     33487     11163  TIP3      OH2           -21.8398505720      -11.8769524159        6.8869936648  W2        11462           0.0000000000
     33488     11163  TIP3      H1            -22.5663905720      -12.3566924159        7.2847536648  W2        11462           0.0000000000
     33489     11163  TIP3      H2            -21.2585205720      -11.6714824159        7.6191536648  W2        11462           0.0000000000
     33490     11164  TIP3      OH2           -22.0807305720       -9.0922024159       11.8347536648  W2        11463           0.0000000000
     33491     11164  TIP3      H1            -21.2473105720       -9.4702024159       11.5541136648  W2        11463           0.0000000000
     33492     11164  TIP3      H2            -21.9687005720       -8.1490824159       11.7156636648  W2        11463           0.0000000000
     33493     11165  TIP3      OH2           -23.5945005720       -6.2144524159       14.1415936648  W2        11464           0.0000000000
     33494     11165  TIP3      H1            -24.2419705720       -5.8893024159       14.7671136648  W2        11464           0.0000000000
     33495     11165  TIP3      H2            -24.1121005720       -6.6546824159       13.4674236648  W2        11464           0.0000000000
     33496     11166  TIP3      OH2           -21.5715405720      -11.9761024159        3.2781236648  W2        11465           0.0000000000
     33497     11166  TIP3      H1            -22.0934305720      -11.6196924159        2.5592136648  W2        11465           0.0000000000
     33498     11166  TIP3      H2            -21.6046205720      -11.3013224159        3.9562136648  W2        11465           0.0000000000
     33499     11167  TIP3      OH2           -23.2226405720      -14.7365424159        1.8288336648  W2        11466           0.0000000000
     33500     11167  TIP3      H1            -23.1262005720      -14.0698424159        1.1488036648  W2        11466           0.0000000000
     33501     11167  TIP3      H2            -23.3626805720      -15.5519124159        1.3473836648  W2        11466           0.0000000000
     33502     11168  TIP3      OH2           -24.0531705720      -13.3563024159        7.4498636648  W2        11467           0.0000000000
     33503     11168  TIP3      H1            -24.2032905720      -14.3014424159        7.4296436648  W2        11467           0.0000000000
     33504     11168  TIP3      H2            -24.4067205720      -13.0751624159        8.2937736648  W2        11467           0.0000000000
     33505     11169  TIP3      OH2           -39.0179305720      -11.2780824159       11.4602436648  W2        11468           0.0000000000
     33506     11169  TIP3      H1            -38.8336405720      -11.3599124159       10.5245336648  W2        11468           0.0000000000
     33507     11169  TIP3      H2            -38.1686405720      -11.4023824159       11.8838836648  W2        11468           0.0000000000
     33508     11170  TIP3      OH2           -23.1968805720      -11.3859724159       17.0886936648  W2        11469           0.0000000000
     33509     11170  TIP3      H1            -22.6141505720      -12.1207424159       17.2804136648  W2        11469           0.0000000000
     33510     11170  TIP3      H2            -22.6329505720      -10.6139424159       17.1352736648  W2        11469           0.0000000000
     33511     11171  TIP3      OH2           -21.7001705720      -13.4833924159       17.7732336648  W2        11470           0.0000000000
     33512     11171  TIP3      H1            -22.5635005720      -13.8621824159       17.6077036648  W2        11470           0.0000000000
     33513     11171  TIP3      H2            -21.0958005720      -14.2219124159       17.6988136648  W2        11470           0.0000000000
     33514     11172  TIP3      OH2           -23.9752605720      -17.3285624159        0.9463836648  W2        11471           0.0000000000
     33515     11172  TIP3      H1            -23.3646805720      -17.6998824159        1.5832036648  W2        11471           0.0000000000
     33516     11172  TIP3      H2            -24.8121105720      -17.7498724159        1.1423836648  W2        11471           0.0000000000
     33517     11173  TIP3      OH2           -24.3426905720      -15.7737224159        5.9123736648  W2        11472           0.0000000000
     33518     11173  TIP3      H1            -24.0629805720      -16.6806824159        6.0365436648  W2        11472           0.0000000000
     33519     11173  TIP3      H2            -23.5835205720      -15.3395724159        5.5232936648  W2        11472           0.0000000000
     33520     11174  TIP3      OH2           -23.7308605720      -15.1919824159       11.3482636648  W2        11473           0.0000000000
     33521     11174  TIP3      H1            -22.7980605720      -14.9799924159       11.3138636648  W2        11473           0.0000000000
     33522     11174  TIP3      H2            -23.9661105720      -15.0907724159       12.2705636648  W2        11473           0.0000000000
     33523     11175  TIP3      OH2           -23.7016705720      -14.4554524159       14.1242036648  W2        11474           0.0000000000
     33524     11175  TIP3      H1            -24.5445405720      -14.1874124159       14.4901836648  W2        11474           0.0000000000
     33525     11175  TIP3      H2            -23.2592405720      -13.6332624159       13.9133136648  W2        11474           0.0000000000
     33526     11176  TIP3      OH2           -39.4204505720      -16.0075824159       17.6011236648  W2        11475           0.0000000000
     33527     11176  TIP3      H1            -38.5009605720      -16.1297524159       17.8374336648  W2        11475           0.0000000000
     33528     11176  TIP3      H2            -39.8700005720      -16.7576124159       17.9904736648  W2        11475           0.0000000000
     33529     11177  TIP3      OH2           -23.7292105720      -18.5107924159        5.9605736648  W2        11477           0.0000000000
     33530     11177  TIP3      H1            -23.5467105720      -18.9596424159        6.7860736648  W2        11477           0.0000000000
     33531     11177  TIP3      H2            -24.3289205720      -19.0953524159        5.4970336648  W2        11477           0.0000000000
     33532     11178  TIP3      OH2           -38.1992005720      -17.6954224159       10.4924136648  W2        11478           0.0000000000
     33533     11178  TIP3      H1            -37.7540405720      -18.4871724159       10.7943836648  W2        11478           0.0000000000
     33534     11178  TIP3      H2            -37.7329005720      -16.9789024159       10.9229736648  W2        11478           0.0000000000
     33535     11179  TIP3      OH2           -39.8951705720      -14.6961224159       11.5614336648  W2        11479           0.0000000000
     33536     11179  TIP3      H1            -39.4031905720      -14.9170724159       10.7706336648  W2        11479           0.0000000000
     33537     11179  TIP3      H2            -39.5330805720      -13.8557824159       11.8423836648  W2        11479           0.0000000000
     33538     11180  TIP3      OH2           -21.8625905720      -18.4429824159        2.4886036648  W2        11481           0.0000000000
     33539     11180  TIP3      H1            -21.4503305720      -19.1644124159        2.0134036648  W2        11481           0.0000000000
     33540     11180  TIP3      H2            -21.1809405720      -17.7735224159        2.5470336648  W2        11481           0.0000000000
     33541     11181  TIP3      OH2           -39.5815205720      -18.4382124159        5.6156736648  W2        11482           0.0000000000
     33542     11181  TIP3      H1            -40.5066805720      -18.2295524159        5.4862236648  W2        11482           0.0000000000
     33543     11181  TIP3      H2            -39.1275305720      -17.9541324159        4.9259036648  W2        11482           0.0000000000
     33544     11182  TIP3      OH2           -24.8108005720       -3.4540424159        7.5614136648  W2        11483           0.0000000000
     33545     11182  TIP3      H1            -24.1585105720       -3.8018324159        6.9533236648  W2        11483           0.0000000000
     33546     11182  TIP3      H2            -24.3004205720       -2.9657224159        8.2073836648  W2        11483           0.0000000000
     33547     11183  TIP3      OH2           -39.6179805720      -19.7003124159       13.9599236648  W2        11484           0.0000000000
     33548     11183  TIP3      H1            -40.2829305720      -19.9462824159       14.6030136648  W2        11484           0.0000000000
     33549     11183  TIP3      H2            -40.0608505720      -19.0782724159       13.3827236648  W2        11484           0.0000000000
     33550     11184  TIP3      OH2           -34.4717605720       -5.5507824159       14.3629036648  W2        11486           0.0000000000
     33551     11184  TIP3      H1            -34.8966505720       -4.7409324159       14.0803636648  W2        11486           0.0000000000
     33552     11184  TIP3      H2            -33.5674805720       -5.4653724159       14.0608836648  W2        11486           0.0000000000
     33553     11185  TIP3      OH2           -30.1606205720       -4.1517824159       17.3222736648  W2        11487           0.0000000000
     33554     11185  TIP3      H1            -29.9758705720       -4.4851724159       18.2003036648  W2        11487           0.0000000000
     33555     11185  TIP3      H2            -29.3141705720       -3.8419224159       17.0001936648  W2        11487           0.0000000000
     33556     11186  TIP3      OH2           -27.8155805720       -2.8658924159       16.5664136648  W2        11488           0.0000000000
     33557     11186  TIP3      H1            -27.1386905720       -3.4986624159       16.3263336648  W2        11488           0.0000000000
     33558     11186  TIP3      H2            -27.4937005720       -2.4648424159       17.3737436648  W2        11488           0.0000000000
     33559     11187  TIP3      OH2           -22.8982005720      -20.2763424159       15.6459136648  W2        11489           0.0000000000
     33560     11187  TIP3      H1            -23.7108505720      -19.9513124159       15.2583836648  W2        11489           0.0000000000
     33561     11187  TIP3      H2            -22.6653505720      -21.0364924159       15.1128236648  W2        11489           0.0000000000
     33562     11188  TIP3      OH2           -37.0700905720       -2.2943924159       14.4104336648  W2        11490           0.0000000000
     33563     11188  TIP3      H1            -37.7904505720       -1.8542924159       13.9592036648  W2        11490           0.0000000000
     33564     11188  TIP3      H2            -37.4356905720       -2.5449224159       15.2588336648  W2        11490           0.0000000000
     33565     11189  TIP3      OH2           -34.6028305720       -2.6940024159       13.4401536648  W2        11491           0.0000000000
     33566     11189  TIP3      H1            -35.4676105720       -2.6221524159       13.8441636648  W2        11491           0.0000000000
     33567     11189  TIP3      H2            -34.6579305720       -2.1472724159       12.6564036648  W2        11491           0.0000000000
     33568     11190  TIP3      OH2           -29.8922705720       -2.8061124159       12.6157536648  W2        11492           0.0000000000
     33569     11190  TIP3      H1            -30.3488705720       -2.2771424159       11.9615936648  W2        11492           0.0000000000
     33570     11190  TIP3      H2            -29.7294705720       -2.2029724159       13.3409836648  W2        11492           0.0000000000
     33571     11191  TIP3      OH2           -27.5646405720       -3.9281524159       13.5607836648  W2        11493           0.0000000000
     33572     11191  TIP3      H1            -28.4692705720       -3.7631324159       13.2949936648  W2        11493           0.0000000000
     33573     11191  TIP3      H2            -27.1357805720       -3.0749324159       13.4951236648  W2        11493           0.0000000000
     33574     11192  TIP3      OH2           -24.9604505720       -2.3582424159       13.8555636648  W2        11494           0.0000000000
     33575     11192  TIP3      H1            -25.1422505720       -1.4423524159       13.6450536648  W2        11494           0.0000000000
     33576     11192  TIP3      H2            -24.7836705720       -2.7685324159       13.0090236648  W2        11494           0.0000000000
     33577     11193  TIP3      OH2           -37.6552805720       -3.6711424159       11.3206136648  W2        11495           0.0000000000
     33578     11193  TIP3      H1            -37.6736805720       -4.0966324159       12.1778436648  W2        11495           0.0000000000
     33579     11193  TIP3      H2            -36.8504905720       -3.9896424159       10.9118336648  W2        11495           0.0000000000
     33580     11194  TIP3      OH2           -35.5139705720       -4.9612724159        9.9756036648  W2        11496           0.0000000000
     33581     11194  TIP3      H1            -35.7329005720       -5.8775324159       10.1452036648  W2        11496           0.0000000000
     33582     11194  TIP3      H2            -34.6897505720       -4.8212324159       10.4417436648  W2        11496           0.0000000000
     33583     11195  TIP3      OH2           -32.9767205720       -4.4913424159       10.8244036648  W2        11497           0.0000000000
     33584     11195  TIP3      H1            -32.7641505720       -5.3794424159       10.5374936648  W2        11497           0.0000000000
     33585     11195  TIP3      H2            -32.9122105720       -4.5255724159       11.7788036648  W2        11497           0.0000000000
     33586     11196  TIP3      OH2           -29.4683505720      -18.8272824159        9.9687336648  W2        11498           0.0000000000
     33587     11196  TIP3      H1            -30.1426705720      -19.4567224159       10.2243136648  W2        11498           0.0000000000
     33588     11196  TIP3      H2            -28.9044305720      -19.3113924159        9.3655236648  W2        11498           0.0000000000
     33589     11197  TIP3      OH2           -24.3256305720      -20.7198824159       10.0814436648  W2        11499           0.0000000000
     33590     11197  TIP3      H1            -23.7218705720      -20.1723424159        9.5795436648  W2        11499           0.0000000000
     33591     11197  TIP3      H2            -25.1954305720      -20.4008424159        9.8408536648  W2        11499           0.0000000000
     33592     11198  TIP3      OH2           -22.5985905720      -19.5810124159        8.4145336648  W2        11500           0.0000000000
     33593     11198  TIP3      H1            -21.9868405720      -20.0954424159        7.8878936648  W2        11500           0.0000000000
     33594     11198  TIP3      H2            -22.2162505720      -18.7038024159        8.4379736648  W2        11500           0.0000000000
     33595     11199  TIP3      OH2           -37.1416005720      -20.1932524159        7.7907236648  W2        11501           0.0000000000
     33596     11199  TIP3      H1            -37.9186205720      -20.4277624159        7.2833136648  W2        11501           0.0000000000
     33597     11199  TIP3      H2            -36.6112405720      -20.9900424159        7.7995236648  W2        11501           0.0000000000
     33598     11200  TIP3      OH2           -38.3052605720      -20.3954424159        3.5943336648  W2        11502           0.0000000000
     33599     11200  TIP3      H1            -37.8661905720      -19.7843924159        3.0026836648  W2        11502           0.0000000000
     33600     11200  TIP3      H2            -38.9390205720      -19.8570324159        4.0683336648  W2        11502           0.0000000000
     33601     11201  TIP3      OH2           -32.5623405720      -20.2665424159        7.6040336648  W2        11503           0.0000000000
     33602     11201  TIP3      H1            -31.6880005720      -19.8781124159        7.5744636648  W2        11503           0.0000000000
     33603     11201  TIP3      H2            -32.6982605720      -20.4817624159        8.5267536648  W2        11503           0.0000000000
     33604     11202  TIP3      OH2           -27.0055005720      -20.2365624159        9.2532036648  W2        11504           0.0000000000
     33605     11202  TIP3      H1            -26.9293405720      -20.1414024159        8.3038036648  W2        11504           0.0000000000
     33606     11202  TIP3      H2            -27.2805805720      -21.1442724159        9.3821136648  W2        11504           0.0000000000
     33607     11203  TIP3      OH2           -25.6522405720      -20.2107824159        4.9457036648  W2        11505           0.0000000000
     33608     11203  TIP3      H1            -26.3551305720      -19.5958624159        4.7358436648  W2        11505           0.0000000000
     33609     11203  TIP3      H2            -26.0971005720      -21.0481124159        5.0767936648  W2        11505           0.0000000000
     33610     11204  TIP3      OH2           -38.4043105720       -4.4472224159        4.4918436648  W2        11506           0.0000000000
     33611     11204  TIP3      H1            -39.0893205720       -4.4853324159        3.8243536648  W2        11506           0.0000000000
     33612     11204  TIP3      H2            -38.4005905720       -3.5344624159        4.7800536648  W2        11506           0.0000000000
     33613     11205  TIP3      OH2           -36.4443505720      -18.4792924159        2.0367436648  W2        11507           0.0000000000
     33614     11205  TIP3      H1            -35.9530105720      -19.1090524159        1.5092936648  W2        11507           0.0000000000
     33615     11205  TIP3      H2            -35.8207205720      -18.1833524159        2.6998636648  W2        11507           0.0000000000
     33616     11206  TIP3      OH2           -31.4183405720      -18.1861424159        4.4937936648  W2        11508           0.0000000000
     33617     11206  TIP3      H1            -31.2402105720      -18.8328224159        5.1766536648  W2        11508           0.0000000000
     33618     11206  TIP3      H2            -31.4717205720      -17.3523724159        4.9609036648  W2        11508           0.0000000000
     33619     11207  TIP3      OH2           -29.5399605720       -3.2377324159        2.8894636648  W2        11509           0.0000000000
     33620     11207  TIP3      H1            -28.6739405720       -2.8709924159        2.7112836648  W2        11509           0.0000000000
     33621     11207  TIP3      H2            -29.7866805720       -3.6769324159        2.0755436648  W2        11509           0.0000000000
     33622     11208  TIP3      OH2           -22.8310005720       -3.6747024159        5.5685736648  W2        11510           0.0000000000
     33623     11208  TIP3      H1            -23.0252905720       -4.4224924159        5.0035336648  W2        11510           0.0000000000
     33624     11208  TIP3      H2            -22.8699905720       -2.9166924159        4.9853636648  W2        11510           0.0000000000
     33625     11209  TIP3      OH2           -37.1838005720      -19.6790624159       17.3083436648  W2        11511           0.0000000000
     33626     11209  TIP3      H1            -37.5499805720      -20.4448024159       17.7508136648  W2        11511           0.0000000000
     33627     11209  TIP3      H2            -36.2709505720      -19.6500424159       17.5948536648  W2        11511           0.0000000000
     33628     11210  TIP3      OH2           -36.5861905720       -3.5271424159        1.5170536648  W2        11513           0.0000000000
     33629     11210  TIP3      H1            -36.8537305720       -3.2408524159        2.3903636648  W2        11513           0.0000000000
     33630     11210  TIP3      H2            -35.8149305720       -4.0732224159        1.6693036648  W2        11513           0.0000000000
     33631     11211  TIP3      OH2           -23.6133805720       -4.9234624159       17.7187536648  W2        11515           0.0000000000
     33632     11211  TIP3      H1            -24.3951905720       -5.1096624159       17.1988136648  W2        11515           0.0000000000
     33633     11211  TIP3      H2            -23.6853905720       -3.9940324159       17.9360036648  W2        11515           0.0000000000
     33634     11212  TIP3      OH2            -9.2073405720      -11.0370224159        7.7494736648  W2        11516           0.0000000000
     33635     11212  TIP3      H1             -9.1182305720      -10.0932024159        7.6171836648  W2        11516           0.0000000000
     33636     11212  TIP3      H2             -9.8455805720      -11.3123824159        7.0914136648  W2        11516           0.0000000000
     33637     11213  TIP3      OH2           -10.2742105720      -11.7819524159       11.1682936648  W2        11517           0.0000000000
     33638     11213  TIP3      H1            -10.3124605720      -12.4283224159       11.8732536648  W2        11517           0.0000000000
     33639     11213  TIP3      H2            -10.5965605720      -12.2485124159       10.3971636648  W2        11517           0.0000000000
     33640     11214  TIP3      OH2           -17.9057105720      -12.1677424159       12.7612836648  W2        11518           0.0000000000
     33641     11214  TIP3      H1            -17.8645005720      -12.7934124159       13.4845236648  W2        11518           0.0000000000
     33642     11214  TIP3      H2            -17.2029405720      -11.5438824159       12.9433236648  W2        11518           0.0000000000
     33643     11215  TIP3      OH2            -6.5681905720       -8.8429124159        9.4698036648  W2        11519           0.0000000000
     33644     11215  TIP3      H1             -7.0089205720       -9.5633124159        9.9203636648  W2        11519           0.0000000000
     33645     11215  TIP3      H2             -6.5812205720       -8.1221924159       10.0995736648  W2        11519           0.0000000000
     33646     11216  TIP3      OH2           -16.9824005720       -7.7178524159       11.2961936648  W2        11520           0.0000000000
     33647     11216  TIP3      H1            -17.3518805720       -8.5198024159       10.9266236648  W2        11520           0.0000000000
     33648     11216  TIP3      H2            -16.0412905720       -7.8863624159       11.3425336648  W2        11520           0.0000000000
     33649     11217  TIP3      OH2           -20.3723505720      -14.0575924159        6.6890736648  W2        11521           0.0000000000
     33650     11217  TIP3      H1            -20.8200105720      -13.2117224159        6.6707236648  W2        11521           0.0000000000
     33651     11217  TIP3      H2            -20.9332305720      -14.6371724159        6.1735836648  W2        11521           0.0000000000
     33652     11218  TIP3      OH2           -19.6617405720      -11.8956324159        8.8148736648  W2        11522           0.0000000000
     33653     11218  TIP3      H1            -19.4483905720      -12.6654724159        9.3421736648  W2        11522           0.0000000000
     33654     11218  TIP3      H2            -18.9239805720      -11.8059624159        8.2116336648  W2        11522           0.0000000000
     33655     11219  TIP3      OH2            -9.4566405720       -3.7387424159        9.6818436648  W2        11523           0.0000000000
     33656     11219  TIP3      H1             -8.8370005720       -4.4152724159        9.4087636648  W2        11523           0.0000000000
     33657     11219  TIP3      H2             -9.6649005720       -3.9566624159       10.5903336648  W2        11523           0.0000000000
     33658     11220  TIP3      OH2           -11.8847705720       -9.3498124159       11.5743936648  W2        11524           0.0000000000
     33659     11220  TIP3      H1            -11.5809805720      -10.0356724159       10.9798036648  W2        11524           0.0000000000
     33660     11220  TIP3      H2            -11.1633705720       -9.2309424159       12.1921936648  W2        11524           0.0000000000
     33661     11221  TIP3      OH2            -3.2217905720      -17.7482824159       12.4350136648  W2        11525           0.0000000000
     33662     11221  TIP3      H1             -3.1725705720      -17.1381624159       13.1709236648  W2        11525           0.0000000000
     33663     11221  TIP3      H2             -2.7962805720      -17.2871924159       11.7121236648  W2        11525           0.0000000000
     33664     11222  TIP3      OH2            -8.7440705720      -14.9555724159       11.9018736648  W2        11526           0.0000000000
     33665     11222  TIP3      H1             -8.6014805720      -15.9018724159       11.9220336648  W2        11526           0.0000000000
     33666     11222  TIP3      H2             -8.8501705720      -14.7485924159       10.9733636648  W2        11526           0.0000000000
     33667     11223  TIP3      OH2           -15.5892405720      -16.8539324159        9.1743536648  W2        11527           0.0000000000
     33668     11223  TIP3      H1            -15.5461305720      -15.9940824159        8.7559836648  W2        11527           0.0000000000
     33669     11223  TIP3      H2            -16.0468305720      -17.4064624159        8.5406736648  W2        11527           0.0000000000
     33670     11224  TIP3      OH2            -7.8669705720      -16.7233724159        7.5751836648  W2        11528           0.0000000000
     33671     11224  TIP3      H1             -7.2205405720      -17.0520524159        8.1999436648  W2        11528           0.0000000000
     33672     11224  TIP3      H2             -7.3570305720      -16.2054724159        6.9523236648  W2        11528           0.0000000000
     33673     11225  TIP3      OH2           -18.9690905720      -14.4573524159        9.9364936648  W2        11529           0.0000000000
     33674     11225  TIP3      H1            -18.3154305720      -15.0071824159       10.3685036648  W2        11529           0.0000000000
     33675     11225  TIP3      H2            -18.9451605720      -14.7314524159        9.0196936648  W2        11529           0.0000000000
     33676     11226  TIP3      OH2           -13.8126405720      -12.9072224159        9.1516436648  W2        11530           0.0000000000
     33677     11226  TIP3      H1            -13.1965405720      -13.4336824159        9.6610436648  W2        11530           0.0000000000
     33678     11226  TIP3      H2            -14.3987605720      -13.5473524159        8.7480036648  W2        11530           0.0000000000
     33679     11227  TIP3      OH2            -2.8303305720      -16.2703624159       14.6709936648  W2        11531           0.0000000000
     33680     11227  TIP3      H1             -3.5188705720      -15.6122924159       14.5756536648  W2        11531           0.0000000000
     33681     11227  TIP3      H2             -2.8148705720      -16.4675724159       15.6075336648  W2        11531           0.0000000000
     33682     11228  TIP3      OH2           -16.7790505720      -17.9360924159       13.2484336648  W2        11532           0.0000000000
     33683     11228  TIP3      H1            -16.9978805720      -17.4060324159       12.4820336648  W2        11532           0.0000000000
     33684     11228  TIP3      H2            -17.4469605720      -17.7095424159       13.8955736648  W2        11532           0.0000000000
     33685     11229  TIP3      OH2            -9.4100705720       -8.4359824159        6.7923436648  W2        11533           0.0000000000
     33686     11229  TIP3      H1             -9.7055605720       -8.7587524159        5.9410336648  W2        11533           0.0000000000
     33687     11229  TIP3      H2             -9.7342905720       -7.5363124159        6.8336036648  W2        11533           0.0000000000
     33688     11230  TIP3      OH2           -14.2099105720      -10.2605224159       13.5358036648  W2        11534           0.0000000000
     33689     11230  TIP3      H1            -14.9500005720       -9.6623724159       13.6393236648  W2        11534           0.0000000000
     33690     11230  TIP3      H2            -13.4959605720       -9.7065624159       13.2201636648  W2        11534           0.0000000000
     33691     11231  TIP3      OH2            -6.1031305720      -17.4324424159        9.5557736648  W2        11535           0.0000000000
     33692     11231  TIP3      H1             -6.3183305720      -18.1981024159       10.0883736648  W2        11535           0.0000000000
     33693     11231  TIP3      H2             -5.4473905720      -16.9599824159       10.0686236648  W2        11535           0.0000000000
     33694     11232  TIP3      OH2           -17.1853205720      -16.0439124159       11.2006536648  W2        11536           0.0000000000
     33695     11232  TIP3      H1            -16.5716905720      -15.4111524159       11.5738936648  W2        11536           0.0000000000
     33696     11232  TIP3      H2            -16.6732505720      -16.5164124159       10.5443436648  W2        11536           0.0000000000
     33697     11233  TIP3      OH2           -15.8024805720       -8.2962224159       14.3229536648  W2        11537           0.0000000000
     33698     11233  TIP3      H1            -15.8077205720       -7.4168724159       13.9448836648  W2        11537           0.0000000000
     33699     11233  TIP3      H2            -16.6560705720       -8.3798124159       14.7479436648  W2        11537           0.0000000000
     33700     11234  TIP3      OH2           -19.6813905720       -8.6254324159        5.1048836648  W2        11538           0.0000000000
     33701     11234  TIP3      H1            -19.9533005720       -8.3963324159        4.2161736648  W2        11538           0.0000000000
     33702     11234  TIP3      H2            -19.6358205720       -7.7875524159        5.5654136648  W2        11538           0.0000000000
     33703     11235  TIP3      OH2            -6.0564205720       -7.0038424159       11.8177336648  W2        11539           0.0000000000
     33704     11235  TIP3      H1             -6.9980505720       -6.9454524159       11.9794236648  W2        11539           0.0000000000
     33705     11235  TIP3      H2             -5.7798105720       -6.0977924159       11.6807036648  W2        11539           0.0000000000
     33706     11236  TIP3      OH2            -5.7557205720      -18.7173124159       13.2351236648  W2        11540           0.0000000000
     33707     11236  TIP3      H1             -6.4918005720      -18.1066024159       13.1972536648  W2        11540           0.0000000000
     33708     11236  TIP3      H2             -5.0723205720      -18.3024124159       12.7087636648  W2        11540           0.0000000000
     33709     11237  TIP3      OH2           -12.7525805720      -20.6305824159       10.7009236648  W2        11541           0.0000000000
     33710     11237  TIP3      H1            -12.8701605720      -21.5789824159       10.6467536648  W2        11541           0.0000000000
     33711     11237  TIP3      H2            -13.6075705720      -20.2979724159       10.9740336648  W2        11541           0.0000000000
     33712     11238  TIP3      OH2            -7.8043005720       -5.2224924159        8.4428936648  W2        11542           0.0000000000
     33713     11238  TIP3      H1             -7.3790705720       -5.9297024159        7.9578536648  W2        11542           0.0000000000
     33714     11238  TIP3      H2             -7.4873005720       -4.4212224159        8.0261136648  W2        11542           0.0000000000
     33715     11239  TIP3      OH2            -6.6446505720       -7.3216424159        6.9515536648  W2        11543           0.0000000000
     33716     11239  TIP3      H1             -6.9021705720       -8.0116324159        6.3401436648  W2        11543           0.0000000000
     33717     11239  TIP3      H2             -6.5735705720       -7.7645224159        7.7971436648  W2        11543           0.0000000000
     33718     11240  TIP3      OH2            -4.9586305720       -8.7549724159       15.4289036648  W2        11544           0.0000000000
     33719     11240  TIP3      H1             -4.8190005720       -9.3467224159       14.6896036648  W2        11544           0.0000000000
     33720     11240  TIP3      H2             -4.7913505720       -7.8823824159       15.0727836648  W2        11544           0.0000000000
     33721     11241  TIP3      OH2           -10.4860905720      -11.7930224159        5.2015036648  W2        11545           0.0000000000
     33722     11241  TIP3      H1            -11.1975405720      -11.2580524159        4.8495536648  W2        11545           0.0000000000
     33723     11241  TIP3      H2             -9.7951305720      -11.7378124159        4.5413936648  W2        11545           0.0000000000
     33724     11242  TIP3      OH2           -10.4321705720      -13.3355924159        2.2400036648  W2        11546           0.0000000000
     33725     11242  TIP3      H1             -9.7311805720      -13.3129024159        2.8914036648  W2        11546           0.0000000000
     33726     11242  TIP3      H2            -10.1298805720      -13.9636224159        1.5839336648  W2        11546           0.0000000000
     33727     11243  TIP3      OH2            -3.1167005720      -12.4151724159       13.4949436648  W2        11547           0.0000000000
     33728     11243  TIP3      H1             -3.7692905720      -11.7206124159       13.5840336648  W2        11547           0.0000000000
     33729     11243  TIP3      H2             -2.6516705720      -12.2050824159       12.6851036648  W2        11547           0.0000000000
     33730     11244  TIP3      OH2            -7.0803205720      -11.5836924159        6.1530936648  W2        11548           0.0000000000
     33731     11244  TIP3      H1             -7.8122205720      -11.3553224159        6.7261536648  W2        11548           0.0000000000
     33732     11244  TIP3      H2             -6.6331005720      -12.2974224159        6.6078436648  W2        11548           0.0000000000
     33733     11245  TIP3      OH2            -7.1829705720      -13.4094324159       15.2207936648  W2        11549           0.0000000000
     33734     11245  TIP3      H1             -7.1030605720      -12.6459924159       15.7926436648  W2        11549           0.0000000000
     33735     11245  TIP3      H2             -7.7842005720      -13.1301924159       14.5303036648  W2        11549           0.0000000000
     33736     11246  TIP3      OH2           -15.4349505720      -10.9530724159        8.0355936648  W2        11550           0.0000000000
     33737     11246  TIP3      H1            -15.7654305720      -11.3237324159        7.2172936648  W2        11550           0.0000000000
     33738     11246  TIP3      H2            -14.8465405720      -11.6236724159        8.3824236648  W2        11550           0.0000000000
     33739     11247  TIP3      OH2           -14.0682005720       -7.5250124159       10.7168136648  W2        11551           0.0000000000
     33740     11247  TIP3      H1            -14.1630705720       -8.1037024159        9.9602736648  W2        11551           0.0000000000
     33741     11247  TIP3      H2            -13.3388405720       -7.8964424159       11.2130936648  W2        11551           0.0000000000
     33742     11248  TIP3      OH2           -15.0684005720      -12.1845124159       11.6690936648  W2        11552           0.0000000000
     33743     11248  TIP3      H1            -14.5031505720      -12.0630924159       10.9062136648  W2        11552           0.0000000000
     33744     11248  TIP3      H2            -14.7495105720      -11.5470124159       12.3079436648  W2        11552           0.0000000000
     33745     11249  TIP3      OH2            -8.7591805720       -6.6813224159       12.4031436648  W2        11553           0.0000000000
     33746     11249  TIP3      H1             -8.9995205720       -6.0190124159       13.0510636648  W2        11553           0.0000000000
     33747     11249  TIP3      H2             -8.9573605720       -7.5158024159       12.8281036648  W2        11553           0.0000000000
     33748     11250  TIP3      OH2           -14.1883305720       -7.7852424159       16.3862836648  W2        11554           0.0000000000
     33749     11250  TIP3      H1            -14.4995805720       -7.0029224159       16.8416036648  W2        11554           0.0000000000
     33750     11250  TIP3      H2            -14.8383105720       -7.9383324159       15.7004836648  W2        11554           0.0000000000
     33751     11251  TIP3      OH2            -8.2093705720      -12.4214024159        3.8382136648  W2        11555           0.0000000000
     33752     11251  TIP3      H1             -7.6298205720      -12.2713724159        4.5851036648  W2        11555           0.0000000000
     33753     11251  TIP3      H2             -7.7953705720      -11.9506624159        3.1148536648  W2        11555           0.0000000000
     33754     11252  TIP3      OH2           -17.2683405720      -11.5871324159       15.6148536648  W2        11556           0.0000000000
     33755     11252  TIP3      H1            -17.1980205720      -10.9364524159       16.3133536648  W2        11556           0.0000000000
     33756     11252  TIP3      H2            -18.1591205720      -11.4843824159       15.2799436648  W2        11556           0.0000000000
     33757     11253  TIP3      OH2           -10.4828805720       -5.6845524159        7.2735236648  W2        11557           0.0000000000
     33758     11253  TIP3      H1            -10.0091205720       -5.3889224159        8.0509436648  W2        11557           0.0000000000
     33759     11253  TIP3      H2            -11.0459505720       -4.9463924159        7.0404836648  W2        11557           0.0000000000
     33760     11254  TIP3      OH2           -15.9487405720       -5.7137424159       17.1496636648  W2        11558           0.0000000000
     33761     11254  TIP3      H1            -15.9412105720       -5.8497724159       16.2022136648  W2        11558           0.0000000000
     33762     11254  TIP3      H2            -16.8647005720       -5.8309324159       17.4016636648  W2        11558           0.0000000000
     33763     11255  TIP3      OH2            -4.5105305720      -20.6713624159        3.6511836648  W2        11559           0.0000000000
     33764     11255  TIP3      H1             -5.4104605720      -20.5324624159        3.9462436648  W2        11559           0.0000000000
     33765     11255  TIP3      H2             -4.2586905720      -19.8399024159        3.2493536648  W2        11559           0.0000000000
     33766     11256  TIP3      OH2           -16.4446805720      -11.8836424159        5.6248736648  W2        11560           0.0000000000
     33767     11256  TIP3      H1            -16.7365505720      -11.1154724159        5.1340036648  W2        11560           0.0000000000
     33768     11256  TIP3      H2            -17.1191605720      -12.5430224159        5.4620136648  W2        11560           0.0000000000
     33769     11257  TIP3      OH2            -3.3213905720       -6.3051224159        2.0275736648  W2        11561           0.0000000000
     33770     11257  TIP3      H1             -3.2480405720       -5.3661024159        2.1981036648  W2        11561           0.0000000000
     33771     11257  TIP3      H2             -2.4158805720       -6.6102624159        1.9713036648  W2        11561           0.0000000000
     33772     11258  TIP3      OH2           -20.3516705720       -9.5207224159       14.4398536648  W2        11562           0.0000000000
     33773     11258  TIP3      H1            -20.8528305720       -9.5487824159       13.6248236648  W2        11562           0.0000000000
     33774     11258  TIP3      H2            -20.3463005720      -10.4264024159       14.7495836648  W2        11562           0.0000000000
     33775     11259  TIP3      OH2           -20.6014005720       -6.7403424159       11.3238736648  W2        11563           0.0000000000
     33776     11259  TIP3      H1            -19.6553405720       -6.8846424159       11.3048236648  W2        11563           0.0000000000
     33777     11259  TIP3      H2            -20.7137705720       -5.9560624159       11.8609936648  W2        11563           0.0000000000
     33778     11260  TIP3      OH2            -2.4035505720       -6.0743724159       17.0062436648  W2        11564           0.0000000000
     33779     11260  TIP3      H1             -2.4528705720       -7.0295624159       16.9690036648  W2        11564           0.0000000000
     33780     11260  TIP3      H2             -3.2303205720       -5.8068424159       17.4076236648  W2        11564           0.0000000000
     33781     11261  TIP3      OH2           -11.4251505720       -6.5004524159       15.8823836648  W2        11565           0.0000000000
     33782     11261  TIP3      H1            -11.3376905720       -5.6739924159       16.3572936648  W2        11565           0.0000000000
     33783     11261  TIP3      H2            -12.2886405720       -6.8300724159       16.1313136648  W2        11565           0.0000000000
     33784     11262  TIP3      OH2           -11.0105705720       -2.7280824159        5.6884436648  W2        11566           0.0000000000
     33785     11262  TIP3      H1            -11.0859705720       -2.8493624159        4.7419636648  W2        11566           0.0000000000
     33786     11262  TIP3      H2            -10.9777005720       -1.7788124159        5.8069036648  W2        11566           0.0000000000
     33787     11263  TIP3      OH2           -17.3571905720       -3.9393824159        7.4693436648  W2        11567           0.0000000000
     33788     11263  TIP3      H1            -17.2051505720       -4.2873424159        8.3479936648  W2        11567           0.0000000000
     33789     11263  TIP3      H2            -18.2081505720       -4.2956524159        7.2140636648  W2        11567           0.0000000000
     33790     11264  TIP3      OH2            -7.9089705720       -3.5740624159        2.6906836648  W2        11568           0.0000000000
     33791     11264  TIP3      H1             -7.5341305720       -4.3184524159        2.2199436648  W2        11568           0.0000000000
     33792     11264  TIP3      H2             -7.9046005720       -3.8440024159        3.6090136648  W2        11568           0.0000000000
     33793     11265  TIP3      OH2            -8.2401605720       -3.6483524159        5.4399036648  W2        11569           0.0000000000
     33794     11265  TIP3      H1             -9.1751805720       -3.5481624159        5.6186036648  W2        11569           0.0000000000
     33795     11265  TIP3      H2             -7.9599705720       -4.3577524159        6.0182236648  W2        11569           0.0000000000
     33796     11266  TIP3      OH2            -5.2515705720      -14.5811224159       17.4864636648  W2        11570           0.0000000000
     33797     11266  TIP3      H1             -5.6588905720      -14.1005624159       16.7657936648  W2        11570           0.0000000000
     33798     11266  TIP3      H2             -5.2110005720      -15.4865224159       17.1785436648  W2        11570           0.0000000000
     33799     11267  TIP3      OH2           -18.1026205720       -8.1971824159       15.4831336648  W2        11571           0.0000000000
     33800     11267  TIP3      H1            -17.8864905720       -8.5586224159       16.3427136648  W2        11571           0.0000000000
     33801     11267  TIP3      H2            -18.9581505720       -8.5718024159       15.2734836648  W2        11571           0.0000000000
     33802     11268  TIP3      OH2           -15.4838205720      -19.7271324159       11.4785536648  W2        11572           0.0000000000
     33803     11268  TIP3      H1            -16.3454505720      -19.8143124159       11.0708436648  W2        11572           0.0000000000
     33804     11268  TIP3      H2            -15.5062505720      -18.8711224159       11.9063136648  W2        11572           0.0000000000
     33805     11269  TIP3      OH2           -10.8210405720      -20.0050924159       14.8532536648  W2        11573           0.0000000000
     33806     11269  TIP3      H1            -10.4007305720      -20.4203824159       15.6063136648  W2        11573           0.0000000000
     33807     11269  TIP3      H2            -11.7540805720      -20.1837624159       14.9704536648  W2        11573           0.0000000000
     33808     11270  TIP3      OH2            -7.4945505720      -16.2495724159       15.7067036648  W2        11574           0.0000000000
     33809     11270  TIP3      H1             -8.0086005720      -16.3753524159       16.5043036648  W2        11574           0.0000000000
     33810     11270  TIP3      H2             -7.6500805720      -15.3372624159       15.4623236648  W2        11574           0.0000000000
     33811     11271  TIP3      OH2            -6.7320605720      -11.3885724159        1.4680036648  W2        11575           0.0000000000
     33812     11271  TIP3      H1             -6.6899805720      -11.6111824159        0.5380036648  W2        11575           0.0000000000
     33813     11271  TIP3      H2             -5.8828505720      -10.9898624159        1.6579936648  W2        11575           0.0000000000
     33814     11272  TIP3      OH2           -11.1593105720      -17.5127524159        2.1383336648  W2        11576           0.0000000000
     33815     11272  TIP3      H1            -11.4128305720      -17.4935924159        3.0611436648  W2        11576           0.0000000000
     33816     11272  TIP3      H2            -11.4161005720      -18.3842124159        1.8369536648  W2        11576           0.0000000000
     33817     11273  TIP3      OH2           -15.3928105720      -14.7616824159       12.5735736648  W2        11577           0.0000000000
     33818     11273  TIP3      H1            -16.0346005720      -14.8019524159       13.2825836648  W2        11577           0.0000000000
     33819     11273  TIP3      H2            -15.3556105720      -13.8352124159       12.3358736648  W2        11577           0.0000000000
     33820     11274  TIP3      OH2           -15.3959005720      -14.5406724159        7.4855736648  W2        11578           0.0000000000
     33821     11274  TIP3      H1            -16.2886105720      -14.8810624159        7.4269536648  W2        11578           0.0000000000
     33822     11274  TIP3      H2            -14.9452405720      -14.9175824159        6.7298936648  W2        11578           0.0000000000
     33823     11275  TIP3      OH2            -9.8603505720      -14.1246424159        6.3026536648  W2        11579           0.0000000000
     33824     11275  TIP3      H1            -10.2693205720      -13.3097824159        6.0111336648  W2        11579           0.0000000000
     33825     11275  TIP3      H2             -9.1397305720      -14.2646324159        5.6883636648  W2        11579           0.0000000000
     33826     11276  TIP3      OH2           -10.7581905720      -13.9490024159       17.7907236648  W2        11580           0.0000000000
     33827     11276  TIP3      H1            -11.3208105720      -14.6538424159       18.1115036648  W2        11580           0.0000000000
     33828     11276  TIP3      H2             -9.9318505720      -14.0698124159       18.2584836648  W2        11580           0.0000000000
     33829     11277  TIP3      OH2            -8.8555805720      -14.6786024159        9.1166236648  W2        11581           0.0000000000
     33830     11277  TIP3      H1             -9.0511305720      -14.0729224159        8.4016836648  W2        11581           0.0000000000
     33831     11277  TIP3      H2             -8.6743205720      -15.5120824159        8.6822536648  W2        11581           0.0000000000
     33832     11278  TIP3      OH2           -17.6427605720      -14.4413324159       14.4407736648  W2        11582           0.0000000000
     33833     11278  TIP3      H1            -17.6808205720      -14.0411724159       15.3094836648  W2        11582           0.0000000000
     33834     11278  TIP3      H2            -18.1336505720      -15.2580924159       14.5310636648  W2        11582           0.0000000000
     33835     11279  TIP3      OH2           -14.2770205720      -17.0671024159        1.2393736648  W2        11583           0.0000000000
     33836     11279  TIP3      H1            -14.7079505720      -17.5120924159        1.9691136648  W2        11583           0.0000000000
     33837     11279  TIP3      H2            -14.9951505720      -16.6954724159        0.7271236648  W2        11583           0.0000000000
     33838     11280  TIP3      OH2           -21.0346805720      -17.3251524159        8.2912436648  W2        11584           0.0000000000
     33839     11280  TIP3      H1            -20.4039105720      -17.3539424159        9.0106336648  W2        11584           0.0000000000
     33840     11280  TIP3      H2            -20.5852505720      -17.7502824159        7.5608336648  W2        11584           0.0000000000
     33841     11281  TIP3      OH2           -19.7604705720      -16.5789524159        3.7152836648  W2        11585           0.0000000000
     33842     11281  TIP3      H1            -19.2863005720      -15.9879624159        3.1303736648  W2        11585           0.0000000000
     33843     11281  TIP3      H2            -20.4778305720      -16.0486624159        4.0622936648  W2        11585           0.0000000000
     33844     11282  TIP3      OH2            -9.5916605720      -13.0404724159       13.7878636648  W2        11586           0.0000000000
     33845     11282  TIP3      H1             -9.2681805720      -13.6715024159       13.1449136648  W2        11586           0.0000000000
     33846     11282  TIP3      H2            -10.0317305720      -13.5752524159       14.4486036648  W2        11586           0.0000000000
     33847     11283  TIP3      OH2           -12.8143705720      -17.1129224159        8.5719836648  W2        11587           0.0000000000
     33848     11283  TIP3      H1            -13.7252605720      -17.0562424159        8.8605836648  W2        11587           0.0000000000
     33849     11283  TIP3      H2            -12.3090805720      -17.1733724159        9.3827036648  W2        11587           0.0000000000
     33850     11284  TIP3      OH2           -17.9860305720      -15.4842924159        7.3987436648  W2        11588           0.0000000000
     33851     11284  TIP3      H1            -18.8752305720      -15.3847424159        7.0587036648  W2        11588           0.0000000000
     33852     11284  TIP3      H2            -17.6895405720      -16.3259924159        7.0525336648  W2        11588           0.0000000000
     33853     11285  TIP3      OH2           -14.3328505720      -15.4840324159        5.0552036648  W2        11589           0.0000000000
     33854     11285  TIP3      H1            -13.4013005720      -15.3550324159        5.2335136648  W2        11589           0.0000000000
     33855     11285  TIP3      H2            -14.5478205720      -14.8146024159        4.4056736648  W2        11589           0.0000000000
     33856     11286  TIP3      OH2            -8.4091805720      -17.8782924159       11.8361636648  W2        11590           0.0000000000
     33857     11286  TIP3      H1             -9.0860205720      -17.7469824159       12.5001336648  W2        11590           0.0000000000
     33858     11286  TIP3      H2             -8.8946905720      -18.0333424159       11.0259336648  W2        11590           0.0000000000
     33859     11287  TIP3      OH2           -15.6588305720      -14.2898124159        2.6218136648  W2        11591           0.0000000000
     33860     11287  TIP3      H1            -16.2013205720      -14.6694324159        1.9305736648  W2        11591           0.0000000000
     33861     11287  TIP3      H2            -14.8253405720      -14.0953424159        2.1932236648  W2        11591           0.0000000000
     33862     11288  TIP3      OH2           -17.5236905720       -9.7326224159       17.7209736648  W2        11593           0.0000000000
     33863     11288  TIP3      H1            -16.7914505720       -9.4780324159       18.2824236648  W2        11593           0.0000000000
     33864     11288  TIP3      H2            -18.3038205720       -9.5280824159       18.2365136648  W2        11593           0.0000000000
     33865     11289  TIP3      OH2           -11.4944005720      -14.3256224159       10.4589436648  W2        11594           0.0000000000
     33866     11289  TIP3      H1            -10.9300605720      -14.8719624159        9.9119036648  W2        11594           0.0000000000
     33867     11289  TIP3      H2            -11.6420605720      -14.8474324159       11.2477036648  W2        11594           0.0000000000
     33868     11290  TIP3      OH2           -16.4924305720      -18.1890124159        6.8774236648  W2        11595           0.0000000000
     33869     11290  TIP3      H1            -16.8094805720      -19.0914824159        6.8419636648  W2        11595           0.0000000000
     33870     11290  TIP3      H2            -15.7110205720      -18.1872724159        6.3245836648  W2        11595           0.0000000000
     33871     11291  TIP3      OH2           -12.8678105720      -15.9370124159       12.8729836648  W2        11596           0.0000000000
     33872     11291  TIP3      H1            -13.7032805720      -15.4830624159       12.9832236648  W2        11596           0.0000000000
     33873     11291  TIP3      H2            -12.3437505720      -15.6611624159       13.6249736648  W2        11596           0.0000000000
     33874     11292  TIP3      OH2           -12.3235505720       -9.7242424159        4.5576236648  W2        11597           0.0000000000
     33875     11292  TIP3      H1            -13.0684505720      -10.2317124159        4.2354136648  W2        11597           0.0000000000
     33876     11292  TIP3      H2            -12.4578305720       -9.6754424159        5.5041036648  W2        11597           0.0000000000
     33877     11293  TIP3      OH2            -5.1736605720      -10.5914224159       13.3443836648  W2        11598           0.0000000000
     33878     11293  TIP3      H1             -4.5317805720      -10.1347924159       12.8006036648  W2        11598           0.0000000000
     33879     11293  TIP3      H2             -6.0039705720      -10.4781824159       12.8817936648  W2        11598           0.0000000000
     33880     11294  TIP3      OH2            -8.4258705720      -16.9102524159        2.7568836648  W2        11599           0.0000000000
     33881     11294  TIP3      H1             -9.3644505720      -16.7986924159        2.6057636648  W2        11599           0.0000000000
     33882     11294  TIP3      H2             -8.1286605720      -16.0535624159        3.0634536648  W2        11599           0.0000000000
     33883     11295  TIP3      OH2           -10.8043405720       -9.5399124159       15.7945336648  W2        11600           0.0000000000
     33884     11295  TIP3      H1            -11.1497305720       -9.9216724159       16.6014936648  W2        11600           0.0000000000
     33885     11295  TIP3      H2            -11.0043305720       -8.6065524159       15.8658236648  W2        11600           0.0000000000
     33886     11296  TIP3      OH2            -7.7075205720      -15.0429824159        4.4176236648  W2        11601           0.0000000000
     33887     11296  TIP3      H1             -6.8156205720      -15.1804824159        4.7367436648  W2        11601           0.0000000000
     33888     11296  TIP3      H2             -7.6511605720      -14.2523724159        3.8809736648  W2        11601           0.0000000000
     33889     11297  TIP3      OH2           -17.1987205720      -10.4292424159       10.3274136648  W2        11602           0.0000000000
     33890     11297  TIP3      H1            -16.4540005720      -10.4316724159        9.7260636648  W2        11602           0.0000000000
     33891     11297  TIP3      H2            -17.1210605720      -11.2528624159       10.8089236648  W2        11602           0.0000000000
     33892     11298  TIP3      OH2           -10.1981405720       -8.2658124159        3.5830836648  W2        11603           0.0000000000
     33893     11298  TIP3      H1            -10.4933005720       -7.4390224159        3.9645636648  W2        11603           0.0000000000
     33894     11298  TIP3      H2            -10.9011405720       -8.8851224159        3.7792236648  W2        11603           0.0000000000
     33895     11299  TIP3      OH2           -20.1907505720      -11.9685524159       15.6422636648  W2        11604           0.0000000000
     33896     11299  TIP3      H1            -19.9678905720      -12.3865924159       16.4740136648  W2        11604           0.0000000000
     33897     11299  TIP3      H2            -20.7927405720      -12.5810524159       15.2195436648  W2        11604           0.0000000000
     33898     11300  TIP3      OH2            -8.5539805720       -7.0783624159       15.7450336648  W2        11606           0.0000000000
     33899     11300  TIP3      H1             -9.4545505720       -6.8951024159       15.4774236648  W2        11606           0.0000000000
     33900     11300  TIP3      H2             -8.5198705720       -6.8194324159       16.6659136648  W2        11606           0.0000000000
     33901     11301  TIP3      OH2            -2.8226505720      -14.8335724159        4.1122936648  W2        11607           0.0000000000
     33902     11301  TIP3      H1             -3.3770205720      -15.2297724159        3.4400436648  W2        11607           0.0000000000
     33903     11301  TIP3      H2             -2.7222905720      -13.9230524159        3.8346236648  W2        11607           0.0000000000
     33904     11302  TIP3      OH2            -2.8594505720       -9.0334024159       16.9494436648  W2        11608           0.0000000000
     33905     11302  TIP3      H1             -3.7106005720       -8.7950224159       16.5820836648  W2        11608           0.0000000000
     33906     11302  TIP3      H2             -2.2691105720       -9.0500824159       16.1961536648  W2        11608           0.0000000000
     33907     11303  TIP3      OH2            -4.5274805720       -6.0475324159        4.5775036648  W2        11609           0.0000000000
     33908     11303  TIP3      H1             -4.9003705720       -6.8731524159        4.8865636648  W2        11609           0.0000000000
     33909     11303  TIP3      H2             -4.2501305720       -6.2305924159        3.6798436648  W2        11609           0.0000000000
     33910     11304  TIP3      OH2            -7.3670905720      -11.2395824159       11.5986936648  W2        11610           0.0000000000
     33911     11304  TIP3      H1             -8.2954005720      -11.4713924159       11.5716236648  W2        11610           0.0000000000
     33912     11304  TIP3      H2             -6.9159805720      -12.0166024159       11.2685736648  W2        11610           0.0000000000
     33913     11305  TIP3      OH2           -14.8237805720       -6.9114224159        7.7315636648  W2        11611           0.0000000000
     33914     11305  TIP3      H1            -14.2965605720       -6.1379824159        7.5314436648  W2        11611           0.0000000000
     33915     11305  TIP3      H2            -15.7039305720       -6.6865024159        7.4299636648  W2        11611           0.0000000000
     33916     11306  TIP3      OH2           -19.0690105720      -12.0490124159        2.3188036648  W2        11612           0.0000000000
     33917     11306  TIP3      H1            -18.4530205720      -11.4222924159        2.6982836648  W2        11612           0.0000000000
     33918     11306  TIP3      H2            -19.9307505720      -11.7330324159        2.5904536648  W2        11612           0.0000000000
     33919     11307  TIP3      OH2           -13.3965505720       -9.2484324159        7.3079936648  W2        11613           0.0000000000
     33920     11307  TIP3      H1            -13.6375505720       -8.3229924159        7.3495236648  W2        11613           0.0000000000
     33921     11307  TIP3      H2            -14.1371905720       -9.7073024159        7.7043836648  W2        11613           0.0000000000
     33922     11308  TIP3      OH2           -12.8818905720       -5.0990724159       13.6231036648  W2        11614           0.0000000000
     33923     11308  TIP3      H1            -12.5194205720       -4.2445124159       13.3895436648  W2        11614           0.0000000000
     33924     11308  TIP3      H2            -12.3503705720       -5.3909124159       14.3637336648  W2        11614           0.0000000000
     33925     11309  TIP3      OH2           -14.7134705720       -4.2266724159        6.8532136648  W2        11615           0.0000000000
     33926     11309  TIP3      H1            -15.6634205720       -4.1209324159        6.9045436648  W2        11615           0.0000000000
     33927     11309  TIP3      H2            -14.3616605720       -3.4059324159        7.1979636648  W2        11615           0.0000000000
     33928     11310  TIP3      OH2            -9.3378105720       -9.0000024159       13.3236636648  W2        11616           0.0000000000
     33929     11310  TIP3      H1             -9.7636805720       -9.2278324159       14.1500636648  W2        11616           0.0000000000
     33930     11310  TIP3      H2             -8.7572305720       -9.7388224159       13.1411936648  W2        11616           0.0000000000
     33931     11311  TIP3      OH2            -7.1349205720       -8.0709524159        2.3975636648  W2        11617           0.0000000000
     33932     11311  TIP3      H1             -6.7816105720       -8.4509724159        3.2019136648  W2        11617           0.0000000000
     33933     11311  TIP3      H2             -8.0835705720       -8.1644724159        2.4844936648  W2        11617           0.0000000000
     33934     11312  TIP3      OH2            -6.6793905720       -4.4480524159       15.7931436648  W2        11618           0.0000000000
     33935     11312  TIP3      H1             -7.2810705720       -5.0037624159       15.2977736648  W2        11618           0.0000000000
     33936     11312  TIP3      H2             -6.3980205720       -3.7810724159       15.1668836648  W2        11618           0.0000000000
     33937     11313  TIP3      OH2            -2.6314805720       -3.5917024159        2.5985836648  W2        11619           0.0000000000
     33938     11313  TIP3      H1             -1.8876905720       -3.0056524159        2.4587436648  W2        11619           0.0000000000
     33939     11313  TIP3      H2             -3.3256705720       -3.0231224159        2.9318236648  W2        11619           0.0000000000
     33940     11314  TIP3      OH2           -18.5568005720      -17.2152824159       15.2004036648  W2        11620           0.0000000000
     33941     11314  TIP3      H1            -19.4495705720      -16.8767424159       15.1328036648  W2        11620           0.0000000000
     33942     11314  TIP3      H2            -18.6555205720      -18.0706724159       15.6184836648  W2        11620           0.0000000000
     33943     11315  TIP3      OH2            -6.2689905720       -9.3987524159        4.6243536648  W2        11621           0.0000000000
     33944     11315  TIP3      H1             -6.5462305720      -10.1268224159        5.1804636648  W2        11621           0.0000000000
     33945     11315  TIP3      H2             -5.3416905720       -9.2795524159        4.8296136648  W2        11621           0.0000000000
     33946     11316  TIP3      OH2           -18.9056005720       -5.4108424159       13.6353436648  W2        11622           0.0000000000
     33947     11316  TIP3      H1            -18.6885705720       -6.3426024159       13.6043136648  W2        11622           0.0000000000
     33948     11316  TIP3      H2            -18.6592505720       -5.1363424159       14.5186236648  W2        11622           0.0000000000
     33949     11317  TIP3      OH2           -13.0441405720       -6.9593424159        0.8445636648  W2        11623           0.0000000000
     33950     11317  TIP3      H1            -12.8051605720       -7.7075324159        0.2974536648  W2        11623           0.0000000000
     33951     11317  TIP3      H2            -13.3130105720       -7.3471724159        1.6773436648  W2        11623           0.0000000000
     33952     11318  TIP3      OH2           -14.1070805720       -7.3889624159        3.3008236648  W2        11624           0.0000000000
     33953     11318  TIP3      H1            -13.9602805720       -7.9089824159        4.0909136648  W2        11624           0.0000000000
     33954     11318  TIP3      H2            -14.1099105720       -6.4822024159        3.6074136648  W2        11624           0.0000000000
     33955     11319  TIP3      OH2           -17.6539705720      -10.1366324159        3.8113636648  W2        11625           0.0000000000
     33956     11319  TIP3      H1            -18.3400405720       -9.7843824159        4.3783336648  W2        11625           0.0000000000
     33957     11319  TIP3      H2            -17.1311805720       -9.3736724159        3.5647936648  W2        11625           0.0000000000
     33958     11320  TIP3      OH2            -9.8224605720      -17.4742524159       14.0902636648  W2        11626           0.0000000000
     33959     11320  TIP3      H1             -9.1236705720      -17.4003824159       14.7402336648  W2        11626           0.0000000000
     33960     11320  TIP3      H2            -10.2033205720      -18.3387524159       14.2445536648  W2        11626           0.0000000000
     33961     11321  TIP3      OH2            -9.0379705720      -17.8220824159        5.1874936648  W2        11627           0.0000000000
     33962     11321  TIP3      H1             -8.8181405720      -17.3505424159        4.3840336648  W2        11627           0.0000000000
     33963     11321  TIP3      H2             -8.4795705720      -17.4278224159        5.8575536648  W2        11627           0.0000000000
     33964     11322  TIP3      OH2           -11.3693605720       -5.6916024159        4.0502436648  W2        11628           0.0000000000
     33965     11322  TIP3      H1            -12.1857505720       -5.1946324159        4.1026736648  W2        11628           0.0000000000
     33966     11322  TIP3      H2            -10.8397305720       -5.2162524159        3.4101236648  W2        11628           0.0000000000
     33967     11323  TIP3      OH2           -11.8379805720      -16.0942024159        6.0223336648  W2        11629           0.0000000000
     33968     11323  TIP3      H1            -11.0257205720      -15.5898824159        6.0685036648  W2        11629           0.0000000000
     33969     11323  TIP3      H2            -12.0826805720      -16.2392324159        6.9362936648  W2        11629           0.0000000000
     33970     11324  TIP3      OH2           -11.3023405720      -15.1079324159       15.2069936648  W2        11630           0.0000000000
     33971     11324  TIP3      H1            -11.1833105720      -14.5343924159       15.9640336648  W2        11630           0.0000000000
     33972     11324  TIP3      H2            -10.6468805720      -15.7959924159       15.3217736648  W2        11630           0.0000000000
     33973     11325  TIP3      OH2           -10.9543105720      -19.0129024159        6.9604436648  W2        11631           0.0000000000
     33974     11325  TIP3      H1            -11.3009605720      -18.3958424159        7.6048736648  W2        11631           0.0000000000
     33975     11325  TIP3      H2            -10.2956205720      -18.5123324159        6.4789936648  W2        11631           0.0000000000
     33976     11326  TIP3      OH2           -14.0310505720       -4.6478824159        4.0319336648  W2        11632           0.0000000000
     33977     11326  TIP3      H1            -13.8701805720       -3.8481324159        3.5311936648  W2        11632           0.0000000000
     33978     11326  TIP3      H2            -14.2282705720       -4.3412824159        4.9169936648  W2        11632           0.0000000000
     33979     11327  TIP3      OH2           -15.2966105720      -17.9499624159        3.6476936648  W2        11633           0.0000000000
     33980     11327  TIP3      H1            -15.3801305720      -17.0616524159        3.9943336648  W2        11633           0.0000000000
     33981     11327  TIP3      H2            -14.4065805720      -18.2152924159        3.8793736648  W2        11633           0.0000000000
     33982     11328  TIP3      OH2            -5.0977605720      -17.2009024159       16.0419636648  W2        11634           0.0000000000
     33983     11328  TIP3      H1             -6.0141805720      -16.9387324159       15.9543336648  W2        11634           0.0000000000
     33984     11328  TIP3      H2             -4.7622605720      -17.2040024159       15.1454936648  W2        11634           0.0000000000
     33985     11329  TIP3      OH2            -6.4956605720      -13.4508024159       10.1376936648  W2        11635           0.0000000000
     33986     11329  TIP3      H1             -7.2932205720      -13.8657824159        9.8091936648  W2        11635           0.0000000000
     33987     11329  TIP3      H2             -6.0505505720      -14.1414324159       10.6287436648  W2        11635           0.0000000000
     33988     11330  TIP3      OH2           -17.0380805720       -7.5227424159        2.7081436648  W2        11636           0.0000000000
     33989     11330  TIP3      H1            -16.4459305720       -6.8232624159        2.9843836648  W2        11636           0.0000000000
     33990     11330  TIP3      H2            -16.5787805720       -7.9557924159        1.9886036648  W2        11636           0.0000000000
     33991     11331  TIP3      OH2           -18.7221605720      -14.8584424159        1.8240836648  W2        11637           0.0000000000
     33992     11331  TIP3      H1            -18.7669005720      -13.9191324159        2.0027836648  W2        11637           0.0000000000
     33993     11331  TIP3      H2            -19.6098405720      -15.0939524159        1.5542936648  W2        11637           0.0000000000
     33994     11332  TIP3      OH2            -5.4092005720       -4.1945524159       11.7600436648  W2        11638           0.0000000000
     33995     11332  TIP3      H1             -5.5647705720       -3.5161124159       11.1029736648  W2        11638           0.0000000000
     33996     11332  TIP3      H2             -4.4765605720       -4.1226224159       11.9631036648  W2        11638           0.0000000000
     33997     11333  TIP3      OH2           -17.9139605720      -20.0767824159       10.4971836648  W2        11639           0.0000000000
     33998     11333  TIP3      H1            -18.1429805720      -20.0175324159        9.5696836648  W2        11639           0.0000000000
     33999     11333  TIP3      H2            -18.3566205720      -20.8682324159       10.8035936648  W2        11639           0.0000000000
     34000     11334  TIP3      OH2           -18.9836305720       -6.1360724159        6.6577636648  W2        11640           0.0000000000
     34001     11334  TIP3      H1            -19.8157705720       -5.6638024159        6.6849036648  W2        11640           0.0000000000
     34002     11334  TIP3      H2            -18.4378005720       -5.6263124159        6.0590736648  W2        11640           0.0000000000
     34003     11335  TIP3      OH2           -11.0059605720       -5.0962024159        0.9831636648  W2        11643           0.0000000000
     34004     11335  TIP3      H1            -11.6498605720       -5.7273424159        1.3045336648  W2        11643           0.0000000000
     34005     11335  TIP3      H2            -10.2441305720       -5.6274024159        0.7515136648  W2        11643           0.0000000000
     34006     11336  TIP3      OH2            -6.4016705720       -5.2792124159        1.2169636648  W2        11645           0.0000000000
     34007     11336  TIP3      H1             -6.1186305720       -6.0736924159        1.6696536648  W2        11645           0.0000000000
     34008     11336  TIP3      H2             -5.6618805720       -5.0461124159        0.6560736648  W2        11645           0.0000000000
     34009     11337  TIP3      OH2           -15.4469405720       -9.3697224159        1.0744536648  W2        11647           0.0000000000
     34010     11337  TIP3      H1            -15.3825305720      -10.1637624159        1.6050936648  W2        11647           0.0000000000
     34011     11337  TIP3      H2            -14.7940205720       -9.4884424159        0.3846536648  W2        11647           0.0000000000
     34012     11338  TIP3      OH2           -10.0946005720       -8.3225524159        0.8102536648  W2        11649           0.0000000000
     34013     11338  TIP3      H1            -10.3631905720       -8.1423424159        1.7111436648  W2        11649           0.0000000000
     34014     11338  TIP3      H2            -10.3010405720       -9.2479324159        0.6788336648  W2        11649           0.0000000000
     34015     11339  TIP3      OH2            -7.3981805720       -9.8277524159       15.7578636648  W2        11650           0.0000000000
     34016     11339  TIP3      H1             -6.6527005720       -9.2393824159       15.6382636648  W2        11650           0.0000000000
     34017     11339  TIP3      H2             -8.1555005720       -9.2457824159       15.8211736648  W2        11650           0.0000000000
     34018     11340  TIP3      OH2           -14.2975605720      -11.3971024159        3.3802536648  W2        11652           0.0000000000
     34019     11340  TIP3      H1            -14.7573605720      -11.8812724159        4.0661036648  W2        11652           0.0000000000
     34020     11340  TIP3      H2            -14.0426905720      -12.0655624159        2.7443036648  W2        11652           0.0000000000
     34021     11341  TIP3      OH2           -15.0086305720      -13.5043924159       15.7362136648  W2        11653           0.0000000000
     34022     11341  TIP3      H1            -15.6270205720      -12.8297324159       16.0166836648  W2        11653           0.0000000000
     34023     11341  TIP3      H2            -14.6645105720      -13.1830024159       14.9028336648  W2        11653           0.0000000000
     34024     11342  TIP3      OH2           -13.2265205720      -13.1539224159        1.6425736648  W2        11654           0.0000000000
     34025     11342  TIP3      H1            -13.4070205720      -13.3088024159        0.7154036648  W2        11654           0.0000000000
     34026     11342  TIP3      H2            -12.2764705720      -13.0460524159        1.6873636648  W2        11654           0.0000000000
     34027     11343  TIP3      OH2            -3.8366905720      -10.7995024159        1.0883836648  W2        11656           0.0000000000
     34028     11343  TIP3      H1             -4.1102105720      -11.2239524159        0.2752136648  W2        11656           0.0000000000
     34029     11343  TIP3      H2             -3.7972805720       -9.8680524159        0.8714236648  W2        11656           0.0000000000
     34030     11344  TIP3      OH2           -14.6692605720      -16.1493124159       16.8185236648  W2        11657           0.0000000000
     34031     11344  TIP3      H1            -14.5191705720      -16.8781824159       16.2164936648  W2        11657           0.0000000000
     34032     11344  TIP3      H2            -14.6670205720      -15.3721424159       16.2597436648  W2        11657           0.0000000000
     34033     11345  TIP3      OH2           -14.2566905720      -17.7797324159       14.3112636648  W2        11658           0.0000000000
     34034     11345  TIP3      H1            -13.7209405720      -17.3280624159       13.6591936648  W2        11658           0.0000000000
     34035     11345  TIP3      H2            -15.1087305720      -17.8877524159       13.8886736648  W2        11658           0.0000000000
     34036     11346  TIP3      OH2           -12.6748505720      -12.3401124159       14.5507836648  W2        11659           0.0000000000
     34037     11346  TIP3      H1            -11.9243705720      -12.4963624159       13.9775636648  W2        11659           0.0000000000
     34038     11346  TIP3      H2            -13.0140205720      -11.4884524159       14.2753336648  W2        11659           0.0000000000
     34039     11347  TIP3      OH2            -6.9425105720      -11.7364124159       17.6565836648  W2        11661           0.0000000000
     34040     11347  TIP3      H1             -7.2240105720      -11.0269524159       17.0789636648  W2        11661           0.0000000000
     34041     11347  TIP3      H2             -6.0000805720      -11.8091124159       17.5057036648  W2        11661           0.0000000000
     34042     11348  TIP3      OH2           -13.4511405720      -20.3231624159       14.7426236648  W2        11663           0.0000000000
     34043     11348  TIP3      H1            -13.5491805720      -19.3768424159       14.6372436648  W2        11663           0.0000000000
     34044     11348  TIP3      H2            -14.1935205720      -20.6957824159       14.2669736648  W2        11663           0.0000000000
     34045     11349  TIP3      OH2            -9.4714305720      -16.8742724159       17.3818136648  W2        11665           0.0000000000
     34046     11349  TIP3      H1            -10.4188905720      -16.8423024159       17.5141436648  W2        11665           0.0000000000
     34047     11349  TIP3      H2             -9.1587605720      -17.4995624159       18.0356336648  W2        11665           0.0000000000
     34048     11350  TIP3      OH2           -13.2293305720      -21.0294224159       17.4139036648  W2        11668           0.0000000000
     34049     11350  TIP3      H1            -12.5174905720      -21.6692024159       17.3998136648  W2        11668           0.0000000000
     34050     11350  TIP3      H2            -13.3302905720      -20.7625924159       16.5002136648  W2        11668           0.0000000000
     34051     11351  TIP3      OH2           -13.3293505720       -2.4635524159        2.6439336648  W2        11670           0.0000000000
     34052     11351  TIP3      H1            -12.3962805720       -2.3056824159        2.7877736648  W2        11670           0.0000000000
     34053     11351  TIP3      H2            -13.5934705720       -1.7882524159        2.0190836648  W2        11670           0.0000000000
     34054     11352  TIP3      OH2           -19.7608605720       -7.8271724159        2.1267436648  W2        11671           0.0000000000
     34055     11352  TIP3      H1            -18.8469405720       -7.7482824159        2.4001336648  W2        11671           0.0000000000
     34056     11352  TIP3      H2            -19.7535505720       -8.5142124159        1.4603036648  W2        11671           0.0000000000
     34057     11353  TIP3      OH2           -21.1118005720       -2.4343224159        7.2041336648  W2        11672           0.0000000000
     34058     11353  TIP3      H1            -21.7590905720       -2.8961524159        6.6712536648  W2        11672           0.0000000000
     34059     11353  TIP3      H2            -20.7573405720       -3.1059924159        7.7867536648  W2        11672           0.0000000000
     34060     11354  TIP3      OH2           -20.2418805720       -4.3536224159        9.0087536648  W2        11673           0.0000000000
     34061     11354  TIP3      H1            -20.5762005720       -5.2338924159        9.1807736648  W2        11673           0.0000000000
     34062     11354  TIP3      H2            -20.0196405720       -4.0081224159        9.8733136648  W2        11673           0.0000000000
     34063     11355  TIP3      OH2            -2.6934005720       -3.5439824159       11.9892336648  W2        11674           0.0000000000
     34064     11355  TIP3      H1             -2.7147305720       -3.3591424159       12.9281736648  W2        11674           0.0000000000
     34065     11355  TIP3      H2             -2.0027805720       -2.9755824159       11.6483736648  W2        11674           0.0000000000
     34066     11356  TIP3      OH2            -3.1301105720       -3.9768724159       14.9111436648  W2        11675           0.0000000000
     34067     11356  TIP3      H1             -3.6172405720       -4.7124624159       14.5398836648  W2        11675           0.0000000000
     34068     11356  TIP3      H2             -2.5808405720       -4.3704824159       15.5890836648  W2        11675           0.0000000000
     34069     11357  TIP3      OH2            -3.3784105720       -9.9306924159        5.0634236648  W2        11677           0.0000000000
     34070     11357  TIP3      H1             -2.5282705720       -9.5096024159        5.1905836648  W2        11677           0.0000000000
     34071     11357  TIP3      H2             -3.3729005720      -10.6706824159        5.6705636648  W2        11677           0.0000000000
     34072     11358  TIP3      OH2            -2.9838505720      -11.8769524159        6.8869936648  W2        11678           0.0000000000
     34073     11358  TIP3      H1             -3.7103905720      -12.3566924159        7.2847536648  W2        11678           0.0000000000
     34074     11358  TIP3      H2             -2.4025205720      -11.6714824159        7.6191536648  W2        11678           0.0000000000
     34075     11359  TIP3      OH2            -3.2247305720       -9.0922024159       11.8347536648  W2        11679           0.0000000000
     34076     11359  TIP3      H1             -2.3913105720       -9.4702024159       11.5541136648  W2        11679           0.0000000000
     34077     11359  TIP3      H2             -3.1127005720       -8.1490824159       11.7156636648  W2        11679           0.0000000000
     34078     11360  TIP3      OH2            -4.7385005720       -6.2144524159       14.1415936648  W2        11680           0.0000000000
     34079     11360  TIP3      H1             -5.3859705720       -5.8893024159       14.7671136648  W2        11680           0.0000000000
     34080     11360  TIP3      H2             -5.2561005720       -6.6546824159       13.4674236648  W2        11680           0.0000000000
     34081     11361  TIP3      OH2            -2.7155405720      -11.9761024159        3.2781236648  W2        11681           0.0000000000
     34082     11361  TIP3      H1             -3.2374305720      -11.6196924159        2.5592136648  W2        11681           0.0000000000
     34083     11361  TIP3      H2             -2.7486205720      -11.3013224159        3.9562136648  W2        11681           0.0000000000
     34084     11362  TIP3      OH2            -4.3666405720      -14.7365424159        1.8288336648  W2        11682           0.0000000000
     34085     11362  TIP3      H1             -4.2702005720      -14.0698424159        1.1488036648  W2        11682           0.0000000000
     34086     11362  TIP3      H2             -4.5066805720      -15.5519124159        1.3473836648  W2        11682           0.0000000000
     34087     11363  TIP3      OH2            -5.1971705720      -13.3563024159        7.4498636648  W2        11683           0.0000000000
     34088     11363  TIP3      H1             -5.3472905720      -14.3014424159        7.4296436648  W2        11683           0.0000000000
     34089     11363  TIP3      H2             -5.5507205720      -13.0751624159        8.2937736648  W2        11683           0.0000000000
     34090     11364  TIP3      OH2           -20.1619305720      -11.2780824159       11.4602436648  W2        11684           0.0000000000
     34091     11364  TIP3      H1            -19.9776405720      -11.3599124159       10.5245336648  W2        11684           0.0000000000
     34092     11364  TIP3      H2            -19.3126405720      -11.4023824159       11.8838836648  W2        11684           0.0000000000
     34093     11365  TIP3      OH2            -4.3408805720      -11.3859724159       17.0886936648  W2        11685           0.0000000000
     34094     11365  TIP3      H1             -3.7581505720      -12.1207424159       17.2804136648  W2        11685           0.0000000000
     34095     11365  TIP3      H2             -3.7769505720      -10.6139424159       17.1352736648  W2        11685           0.0000000000
     34096     11366  TIP3      OH2            -2.8441705720      -13.4833924159       17.7732336648  W2        11686           0.0000000000
     34097     11366  TIP3      H1             -3.7075005720      -13.8621824159       17.6077036648  W2        11686           0.0000000000
     34098     11366  TIP3      H2             -2.2398005720      -14.2219124159       17.6988136648  W2        11686           0.0000000000
     34099     11367  TIP3      OH2            -5.1192605720      -17.3285624159        0.9463836648  W2        11687           0.0000000000
     34100     11367  TIP3      H1             -4.5086805720      -17.6998824159        1.5832036648  W2        11687           0.0000000000
     34101     11367  TIP3      H2             -5.9561105720      -17.7498724159        1.1423836648  W2        11687           0.0000000000
     34102     11368  TIP3      OH2            -5.4866905720      -15.7737224159        5.9123736648  W2        11688           0.0000000000
     34103     11368  TIP3      H1             -5.2069805720      -16.6806824159        6.0365436648  W2        11688           0.0000000000
     34104     11368  TIP3      H2             -4.7275205720      -15.3395724159        5.5232936648  W2        11688           0.0000000000
     34105     11369  TIP3      OH2            -4.8748605720      -15.1919824159       11.3482636648  W2        11689           0.0000000000
     34106     11369  TIP3      H1             -3.9420605720      -14.9799924159       11.3138636648  W2        11689           0.0000000000
     34107     11369  TIP3      H2             -5.1101105720      -15.0907724159       12.2705636648  W2        11689           0.0000000000
     34108     11370  TIP3      OH2            -4.8456705720      -14.4554524159       14.1242036648  W2        11690           0.0000000000
     34109     11370  TIP3      H1             -5.6885405720      -14.1874124159       14.4901836648  W2        11690           0.0000000000
     34110     11370  TIP3      H2             -4.4032405720      -13.6332624159       13.9133136648  W2        11690           0.0000000000
     34111     11371  TIP3      OH2           -20.5644505720      -16.0075824159       17.6011236648  W2        11691           0.0000000000
     34112     11371  TIP3      H1            -19.6449605720      -16.1297524159       17.8374336648  W2        11691           0.0000000000
     34113     11371  TIP3      H2            -21.0140005720      -16.7576124159       17.9904736648  W2        11691           0.0000000000
     34114     11372  TIP3      OH2            -4.8732105720      -18.5107924159        5.9605736648  W2        11693           0.0000000000
     34115     11372  TIP3      H1             -4.6907105720      -18.9596424159        6.7860736648  W2        11693           0.0000000000
     34116     11372  TIP3      H2             -5.4729205720      -19.0953524159        5.4970336648  W2        11693           0.0000000000
     34117     11373  TIP3      OH2           -19.3432005720      -17.6954224159       10.4924136648  W2        11694           0.0000000000
     34118     11373  TIP3      H1            -18.8980405720      -18.4871724159       10.7943836648  W2        11694           0.0000000000
     34119     11373  TIP3      H2            -18.8769005720      -16.9789024159       10.9229736648  W2        11694           0.0000000000
     34120     11374  TIP3      OH2           -21.0391705720      -14.6961224159       11.5614336648  W2        11695           0.0000000000
     34121     11374  TIP3      H1            -20.5471905720      -14.9170724159       10.7706336648  W2        11695           0.0000000000
     34122     11374  TIP3      H2            -20.6770805720      -13.8557824159       11.8423836648  W2        11695           0.0000000000
     34123     11375  TIP3      OH2            -3.0065905720      -18.4429824159        2.4886036648  W2        11697           0.0000000000
     34124     11375  TIP3      H1             -2.5943305720      -19.1644124159        2.0134036648  W2        11697           0.0000000000
     34125     11375  TIP3      H2             -2.3249405720      -17.7735224159        2.5470336648  W2        11697           0.0000000000
     34126     11376  TIP3      OH2           -20.7255205720      -18.4382124159        5.6156736648  W2        11698           0.0000000000
     34127     11376  TIP3      H1            -21.6506805720      -18.2295524159        5.4862236648  W2        11698           0.0000000000
     34128     11376  TIP3      H2            -20.2715305720      -17.9541324159        4.9259036648  W2        11698           0.0000000000
     34129     11377  TIP3      OH2            -5.9548005720       -3.4540424159        7.5614136648  W2        11699           0.0000000000
     34130     11377  TIP3      H1             -5.3025105720       -3.8018324159        6.9533236648  W2        11699           0.0000000000
     34131     11377  TIP3      H2             -5.4444205720       -2.9657224159        8.2073836648  W2        11699           0.0000000000
     34132     11378  TIP3      OH2           -20.7619805720      -19.7003124159       13.9599236648  W2        11700           0.0000000000
     34133     11378  TIP3      H1            -21.4269305720      -19.9462824159       14.6030136648  W2        11700           0.0000000000
     34134     11378  TIP3      H2            -21.2048505720      -19.0782724159       13.3827236648  W2        11700           0.0000000000
     34135     11379  TIP3      OH2           -15.6157605720       -5.5507824159       14.3629036648  W2        11702           0.0000000000
     34136     11379  TIP3      H1            -16.0406505720       -4.7409324159       14.0803636648  W2        11702           0.0000000000
     34137     11379  TIP3      H2            -14.7114805720       -5.4653724159       14.0608836648  W2        11702           0.0000000000
     34138     11380  TIP3      OH2           -11.3046205720       -4.1517824159       17.3222736648  W2        11703           0.0000000000
     34139     11380  TIP3      H1            -11.1198705720       -4.4851724159       18.2003036648  W2        11703           0.0000000000
     34140     11380  TIP3      H2            -10.4581705720       -3.8419224159       17.0001936648  W2        11703           0.0000000000
     34141     11381  TIP3      OH2            -8.9595805720       -2.8658924159       16.5664136648  W2        11704           0.0000000000
     34142     11381  TIP3      H1             -8.2826905720       -3.4986624159       16.3263336648  W2        11704           0.0000000000
     34143     11381  TIP3      H2             -8.6377005720       -2.4648424159       17.3737436648  W2        11704           0.0000000000
     34144     11382  TIP3      OH2            -4.0422005720      -20.2763424159       15.6459136648  W2        11705           0.0000000000
     34145     11382  TIP3      H1             -4.8548505720      -19.9513124159       15.2583836648  W2        11705           0.0000000000
     34146     11382  TIP3      H2             -3.8093505720      -21.0364924159       15.1128236648  W2        11705           0.0000000000
     34147     11383  TIP3      OH2           -18.2140905720       -2.2943924159       14.4104336648  W2        11706           0.0000000000
     34148     11383  TIP3      H1            -18.9344505720       -1.8542924159       13.9592036648  W2        11706           0.0000000000
     34149     11383  TIP3      H2            -18.5796905720       -2.5449224159       15.2588336648  W2        11706           0.0000000000
     34150     11384  TIP3      OH2           -15.7468305720       -2.6940024159       13.4401536648  W2        11707           0.0000000000
     34151     11384  TIP3      H1            -16.6116105720       -2.6221524159       13.8441636648  W2        11707           0.0000000000
     34152     11384  TIP3      H2            -15.8019305720       -2.1472724159       12.6564036648  W2        11707           0.0000000000
     34153     11385  TIP3      OH2           -11.0362705720       -2.8061124159       12.6157536648  W2        11708           0.0000000000
     34154     11385  TIP3      H1            -11.4928705720       -2.2771424159       11.9615936648  W2        11708           0.0000000000
     34155     11385  TIP3      H2            -10.8734705720       -2.2029724159       13.3409836648  W2        11708           0.0000000000
     34156     11386  TIP3      OH2            -8.7086405720       -3.9281524159       13.5607836648  W2        11709           0.0000000000
     34157     11386  TIP3      H1             -9.6132705720       -3.7631324159       13.2949936648  W2        11709           0.0000000000
     34158     11386  TIP3      H2             -8.2797805720       -3.0749324159       13.4951236648  W2        11709           0.0000000000
     34159     11387  TIP3      OH2            -6.1044505720       -2.3582424159       13.8555636648  W2        11710           0.0000000000
     34160     11387  TIP3      H1             -6.2862505720       -1.4423524159       13.6450536648  W2        11710           0.0000000000
     34161     11387  TIP3      H2             -5.9276705720       -2.7685324159       13.0090236648  W2        11710           0.0000000000
     34162     11388  TIP3      OH2           -18.7992805720       -3.6711424159       11.3206136648  W2        11711           0.0000000000
     34163     11388  TIP3      H1            -18.8176805720       -4.0966324159       12.1778436648  W2        11711           0.0000000000
     34164     11388  TIP3      H2            -17.9944905720       -3.9896424159       10.9118336648  W2        11711           0.0000000000
     34165     11389  TIP3      OH2           -16.6579705720       -4.9612724159        9.9756036648  W2        11712           0.0000000000
     34166     11389  TIP3      H1            -16.8769005720       -5.8775324159       10.1452036648  W2        11712           0.0000000000
     34167     11389  TIP3      H2            -15.8337505720       -4.8212324159       10.4417436648  W2        11712           0.0000000000
     34168     11390  TIP3      OH2           -14.1207205720       -4.4913424159       10.8244036648  W2        11713           0.0000000000
     34169     11390  TIP3      H1            -13.9081505720       -5.3794424159       10.5374936648  W2        11713           0.0000000000
     34170     11390  TIP3      H2            -14.0562105720       -4.5255724159       11.7788036648  W2        11713           0.0000000000
     34171     11391  TIP3      OH2           -10.6123505720      -18.8272824159        9.9687336648  W2        11714           0.0000000000
     34172     11391  TIP3      H1            -11.2866705720      -19.4567224159       10.2243136648  W2        11714           0.0000000000
     34173     11391  TIP3      H2            -10.0484305720      -19.3113924159        9.3655236648  W2        11714           0.0000000000
     34174     11392  TIP3      OH2            -5.4696305720      -20.7198824159       10.0814436648  W2        11715           0.0000000000
     34175     11392  TIP3      H1             -4.8658705720      -20.1723424159        9.5795436648  W2        11715           0.0000000000
     34176     11392  TIP3      H2             -6.3394305720      -20.4008424159        9.8408536648  W2        11715           0.0000000000
     34177     11393  TIP3      OH2            -3.7425905720      -19.5810124159        8.4145336648  W2        11716           0.0000000000
     34178     11393  TIP3      H1             -3.1308405720      -20.0954424159        7.8878936648  W2        11716           0.0000000000
     34179     11393  TIP3      H2             -3.3602505720      -18.7038024159        8.4379736648  W2        11716           0.0000000000
     34180     11394  TIP3      OH2           -18.2856005720      -20.1932524159        7.7907236648  W2        11717           0.0000000000
     34181     11394  TIP3      H1            -19.0626205720      -20.4277624159        7.2833136648  W2        11717           0.0000000000
     34182     11394  TIP3      H2            -17.7552405720      -20.9900424159        7.7995236648  W2        11717           0.0000000000
     34183     11395  TIP3      OH2           -19.4492605720      -20.3954424159        3.5943336648  W2        11718           0.0000000000
     34184     11395  TIP3      H1            -19.0101905720      -19.7843924159        3.0026836648  W2        11718           0.0000000000
     34185     11395  TIP3      H2            -20.0830205720      -19.8570324159        4.0683336648  W2        11718           0.0000000000
     34186     11396  TIP3      OH2           -13.7063405720      -20.2665424159        7.6040336648  W2        11719           0.0000000000
     34187     11396  TIP3      H1            -12.8320005720      -19.8781124159        7.5744636648  W2        11719           0.0000000000
     34188     11396  TIP3      H2            -13.8422605720      -20.4817624159        8.5267536648  W2        11719           0.0000000000
     34189     11397  TIP3      OH2            -8.1495005720      -20.2365624159        9.2532036648  W2        11720           0.0000000000
     34190     11397  TIP3      H1             -8.0733405720      -20.1414024159        8.3038036648  W2        11720           0.0000000000
     34191     11397  TIP3      H2             -8.4245805720      -21.1442724159        9.3821136648  W2        11720           0.0000000000
     34192     11398  TIP3      OH2            -6.7962405720      -20.2107824159        4.9457036648  W2        11721           0.0000000000
     34193     11398  TIP3      H1             -7.4991305720      -19.5958624159        4.7358436648  W2        11721           0.0000000000
     34194     11398  TIP3      H2             -7.2411005720      -21.0481124159        5.0767936648  W2        11721           0.0000000000
     34195     11399  TIP3      OH2           -19.5483105720       -4.4472224159        4.4918436648  W2        11722           0.0000000000
     34196     11399  TIP3      H1            -20.2333205720       -4.4853324159        3.8243536648  W2        11722           0.0000000000
     34197     11399  TIP3      H2            -19.5445905720       -3.5344624159        4.7800536648  W2        11722           0.0000000000
     34198     11400  TIP3      OH2           -17.5883505720      -18.4792924159        2.0367436648  W2        11723           0.0000000000
     34199     11400  TIP3      H1            -17.0970105720      -19.1090524159        1.5092936648  W2        11723           0.0000000000
     34200     11400  TIP3      H2            -16.9647205720      -18.1833524159        2.6998636648  W2        11723           0.0000000000
     34201     11401  TIP3      OH2           -12.5623405720      -18.1861424159        4.4937936648  W2        11724           0.0000000000
     34202     11401  TIP3      H1            -12.3842105720      -18.8328224159        5.1766536648  W2        11724           0.0000000000
     34203     11401  TIP3      H2            -12.6157205720      -17.3523724159        4.9609036648  W2        11724           0.0000000000
     34204     11402  TIP3      OH2           -10.6839605720       -3.2377324159        2.8894636648  W2        11725           0.0000000000
     34205     11402  TIP3      H1             -9.8179405720       -2.8709924159        2.7112836648  W2        11725           0.0000000000
     34206     11402  TIP3      H2            -10.9306805720       -3.6769324159        2.0755436648  W2        11725           0.0000000000
     34207     11403  TIP3      OH2            -3.9750005720       -3.6747024159        5.5685736648  W2        11726           0.0000000000
     34208     11403  TIP3      H1             -4.1692905720       -4.4224924159        5.0035336648  W2        11726           0.0000000000
     34209     11403  TIP3      H2             -4.0139905720       -2.9166924159        4.9853636648  W2        11726           0.0000000000
     34210     11404  TIP3      OH2           -18.3278005720      -19.6790624159       17.3083436648  W2        11727           0.0000000000
     34211     11404  TIP3      H1            -18.6939805720      -20.4448024159       17.7508136648  W2        11727           0.0000000000
     34212     11404  TIP3      H2            -17.4149505720      -19.6500424159       17.5948536648  W2        11727           0.0000000000
     34213     11405  TIP3      OH2           -17.7301905720       -3.5271424159        1.5170536648  W2        11729           0.0000000000
     34214     11405  TIP3      H1            -17.9977305720       -3.2408524159        2.3903636648  W2        11729           0.0000000000
     34215     11405  TIP3      H2            -16.9589305720       -4.0732224159        1.6693036648  W2        11729           0.0000000000
     34216     11406  TIP3      OH2            -4.7573805720       -4.9234624159       17.7187536648  W2        11731           0.0000000000
     34217     11406  TIP3      H1             -5.5391905720       -5.1096624159       17.1988136648  W2        11731           0.0000000000
     34218     11406  TIP3      H2             -4.8293905720       -3.9940324159       17.9360036648  W2        11731           0.0000000000
     34219     11407  TIP3      OH2             9.6486594280      -11.0370224159        7.7494736648  W2        11732           0.0000000000
     34220     11407  TIP3      H1              9.7377694280      -10.0932024159        7.6171836648  W2        11732           0.0000000000
     34221     11407  TIP3      H2              9.0104194280      -11.3123824159        7.0914136648  W2        11732           0.0000000000
     34222     11408  TIP3      OH2             8.5817894280      -11.7819524159       11.1682936648  W2        11733           0.0000000000
     34223     11408  TIP3      H1              8.5435394280      -12.4283224159       11.8732536648  W2        11733           0.0000000000
     34224     11408  TIP3      H2              8.2594394280      -12.2485124159       10.3971636648  W2        11733           0.0000000000
     34225     11409  TIP3      OH2             0.9502894280      -12.1677424159       12.7612836648  W2        11734           0.0000000000
     34226     11409  TIP3      H1              0.9914994280      -12.7934124159       13.4845236648  W2        11734           0.0000000000
     34227     11409  TIP3      H2              1.6530594280      -11.5438824159       12.9433236648  W2        11734           0.0000000000
     34228     11410  TIP3      OH2            12.2878094280       -8.8429124159        9.4698036648  W2        11735           0.0000000000
     34229     11410  TIP3      H1             11.8470794280       -9.5633124159        9.9203636648  W2        11735           0.0000000000
     34230     11410  TIP3      H2             12.2747794280       -8.1221924159       10.0995736648  W2        11735           0.0000000000
     34231     11411  TIP3      OH2             1.8735994280       -7.7178524159       11.2961936648  W2        11736           0.0000000000
     34232     11411  TIP3      H1              1.5041194280       -8.5198024159       10.9266236648  W2        11736           0.0000000000
     34233     11411  TIP3      H2              2.8147094280       -7.8863624159       11.3425336648  W2        11736           0.0000000000
     34234     11412  TIP3      OH2            -1.5163505720      -14.0575924159        6.6890736648  W2        11737           0.0000000000
     34235     11412  TIP3      H1             -1.9640105720      -13.2117224159        6.6707236648  W2        11737           0.0000000000
     34236     11412  TIP3      H2             -2.0772305720      -14.6371724159        6.1735836648  W2        11737           0.0000000000
     34237     11413  TIP3      OH2            -0.8057405720      -11.8956324159        8.8148736648  W2        11738           0.0000000000
     34238     11413  TIP3      H1             -0.5923905720      -12.6654724159        9.3421736648  W2        11738           0.0000000000
     34239     11413  TIP3      H2             -0.0679805720      -11.8059624159        8.2116336648  W2        11738           0.0000000000
     34240     11414  TIP3      OH2             9.3993594280       -3.7387424159        9.6818436648  W2        11739           0.0000000000
     34241     11414  TIP3      H1             10.0189994280       -4.4152724159        9.4087636648  W2        11739           0.0000000000
     34242     11414  TIP3      H2              9.1910994280       -3.9566624159       10.5903336648  W2        11739           0.0000000000
     34243     11415  TIP3      OH2             6.9712294280       -9.3498124159       11.5743936648  W2        11740           0.0000000000
     34244     11415  TIP3      H1              7.2750194280      -10.0356724159       10.9798036648  W2        11740           0.0000000000
     34245     11415  TIP3      H2              7.6926294280       -9.2309424159       12.1921936648  W2        11740           0.0000000000
     34246     11416  TIP3      OH2            15.6342094280      -17.7482824159       12.4350136648  W2        11741           0.0000000000
     34247     11416  TIP3      H1             15.6834294280      -17.1381624159       13.1709236648  W2        11741           0.0000000000
     34248     11416  TIP3      H2             16.0597194280      -17.2871924159       11.7121236648  W2        11741           0.0000000000
     34249     11417  TIP3      OH2            10.1119294280      -14.9555724159       11.9018736648  W2        11742           0.0000000000
     34250     11417  TIP3      H1             10.2545194280      -15.9018724159       11.9220336648  W2        11742           0.0000000000
     34251     11417  TIP3      H2             10.0058294280      -14.7485924159       10.9733636648  W2        11742           0.0000000000
     34252     11418  TIP3      OH2             3.2667594280      -16.8539324159        9.1743536648  W2        11743           0.0000000000
     34253     11418  TIP3      H1              3.3098694280      -15.9940824159        8.7559836648  W2        11743           0.0000000000
     34254     11418  TIP3      H2              2.8091694280      -17.4064624159        8.5406736648  W2        11743           0.0000000000
     34255     11419  TIP3      OH2            10.9890294280      -16.7233724159        7.5751836648  W2        11744           0.0000000000
     34256     11419  TIP3      H1             11.6354594280      -17.0520524159        8.1999436648  W2        11744           0.0000000000
     34257     11419  TIP3      H2             11.4989694280      -16.2054724159        6.9523236648  W2        11744           0.0000000000
     34258     11420  TIP3      OH2            -0.1130905720      -14.4573524159        9.9364936648  W2        11745           0.0000000000
     34259     11420  TIP3      H1              0.5405694280      -15.0071824159       10.3685036648  W2        11745           0.0000000000
     34260     11420  TIP3      H2             -0.0891605720      -14.7314524159        9.0196936648  W2        11745           0.0000000000
     34261     11421  TIP3      OH2             5.0433594280      -12.9072224159        9.1516436648  W2        11746           0.0000000000
     34262     11421  TIP3      H1              5.6594594280      -13.4336824159        9.6610436648  W2        11746           0.0000000000
     34263     11421  TIP3      H2              4.4572394280      -13.5473524159        8.7480036648  W2        11746           0.0000000000
     34264     11422  TIP3      OH2            16.0256694280      -16.2703624159       14.6709936648  W2        11747           0.0000000000
     34265     11422  TIP3      H1             15.3371294280      -15.6122924159       14.5756536648  W2        11747           0.0000000000
     34266     11422  TIP3      H2             16.0411294280      -16.4675724159       15.6075336648  W2        11747           0.0000000000
     34267     11423  TIP3      OH2             2.0769494280      -17.9360924159       13.2484336648  W2        11748           0.0000000000
     34268     11423  TIP3      H1              1.8581194280      -17.4060324159       12.4820336648  W2        11748           0.0000000000
     34269     11423  TIP3      H2              1.4090394280      -17.7095424159       13.8955736648  W2        11748           0.0000000000
     34270     11424  TIP3      OH2             9.4459294280       -8.4359824159        6.7923436648  W2        11749           0.0000000000
     34271     11424  TIP3      H1              9.1504394280       -8.7587524159        5.9410336648  W2        11749           0.0000000000
     34272     11424  TIP3      H2              9.1217094280       -7.5363124159        6.8336036648  W2        11749           0.0000000000
     34273     11425  TIP3      OH2             4.6460894280      -10.2605224159       13.5358036648  W2        11750           0.0000000000
     34274     11425  TIP3      H1              3.9059994280       -9.6623724159       13.6393236648  W2        11750           0.0000000000
     34275     11425  TIP3      H2              5.3600394280       -9.7065624159       13.2201636648  W2        11750           0.0000000000
     34276     11426  TIP3      OH2            12.7528694280      -17.4324424159        9.5557736648  W2        11751           0.0000000000
     34277     11426  TIP3      H1             12.5376694280      -18.1981024159       10.0883736648  W2        11751           0.0000000000
     34278     11426  TIP3      H2             13.4086094280      -16.9599824159       10.0686236648  W2        11751           0.0000000000
     34279     11427  TIP3      OH2             1.6706794280      -16.0439124159       11.2006536648  W2        11752           0.0000000000
     34280     11427  TIP3      H1              2.2843094280      -15.4111524159       11.5738936648  W2        11752           0.0000000000
     34281     11427  TIP3      H2              2.1827494280      -16.5164124159       10.5443436648  W2        11752           0.0000000000
     34282     11428  TIP3      OH2             3.0535194280       -8.2962224159       14.3229536648  W2        11753           0.0000000000
     34283     11428  TIP3      H1              3.0482794280       -7.4168724159       13.9448836648  W2        11753           0.0000000000
     34284     11428  TIP3      H2              2.1999294280       -8.3798124159       14.7479436648  W2        11753           0.0000000000
     34285     11429  TIP3      OH2            -0.8253905720       -8.6254324159        5.1048836648  W2        11754           0.0000000000
     34286     11429  TIP3      H1             -1.0973005720       -8.3963324159        4.2161736648  W2        11754           0.0000000000
     34287     11429  TIP3      H2             -0.7798205720       -7.7875524159        5.5654136648  W2        11754           0.0000000000
     34288     11430  TIP3      OH2            12.7995794280       -7.0038424159       11.8177336648  W2        11755           0.0000000000
     34289     11430  TIP3      H1             11.8579494280       -6.9454524159       11.9794236648  W2        11755           0.0000000000
     34290     11430  TIP3      H2             13.0761894280       -6.0977924159       11.6807036648  W2        11755           0.0000000000
     34291     11431  TIP3      OH2            13.1002794280      -18.7173124159       13.2351236648  W2        11756           0.0000000000
     34292     11431  TIP3      H1             12.3641994280      -18.1066024159       13.1972536648  W2        11756           0.0000000000
     34293     11431  TIP3      H2             13.7836794280      -18.3024124159       12.7087636648  W2        11756           0.0000000000
     34294     11432  TIP3      OH2             6.1034194280      -20.6305824159       10.7009236648  W2        11757           0.0000000000
     34295     11432  TIP3      H1              5.9858394280      -21.5789824159       10.6467536648  W2        11757           0.0000000000
     34296     11432  TIP3      H2              5.2484294280      -20.2979724159       10.9740336648  W2        11757           0.0000000000
     34297     11433  TIP3      OH2            11.0516994280       -5.2224924159        8.4428936648  W2        11758           0.0000000000
     34298     11433  TIP3      H1             11.4769294280       -5.9297024159        7.9578536648  W2        11758           0.0000000000
     34299     11433  TIP3      H2             11.3686994280       -4.4212224159        8.0261136648  W2        11758           0.0000000000
     34300     11434  TIP3      OH2            12.2113494280       -7.3216424159        6.9515536648  W2        11759           0.0000000000
     34301     11434  TIP3      H1             11.9538294280       -8.0116324159        6.3401436648  W2        11759           0.0000000000
     34302     11434  TIP3      H2             12.2824294280       -7.7645224159        7.7971436648  W2        11759           0.0000000000
     34303     11435  TIP3      OH2            13.8973694280       -8.7549724159       15.4289036648  W2        11760           0.0000000000
     34304     11435  TIP3      H1             14.0369994280       -9.3467224159       14.6896036648  W2        11760           0.0000000000
     34305     11435  TIP3      H2             14.0646494280       -7.8823824159       15.0727836648  W2        11760           0.0000000000
     34306     11436  TIP3      OH2             8.3699094280      -11.7930224159        5.2015036648  W2        11761           0.0000000000
     34307     11436  TIP3      H1              7.6584594280      -11.2580524159        4.8495536648  W2        11761           0.0000000000
     34308     11436  TIP3      H2              9.0608694280      -11.7378124159        4.5413936648  W2        11761           0.0000000000
     34309     11437  TIP3      OH2             8.4238294280      -13.3355924159        2.2400036648  W2        11762           0.0000000000
     34310     11437  TIP3      H1              9.1248194280      -13.3129024159        2.8914036648  W2        11762           0.0000000000
     34311     11437  TIP3      H2              8.7261194280      -13.9636224159        1.5839336648  W2        11762           0.0000000000
     34312     11438  TIP3      OH2            15.7392994280      -12.4151724159       13.4949436648  W2        11763           0.0000000000
     34313     11438  TIP3      H1             15.0867094280      -11.7206124159       13.5840336648  W2        11763           0.0000000000
     34314     11438  TIP3      H2             16.2043294280      -12.2050824159       12.6851036648  W2        11763           0.0000000000
     34315     11439  TIP3      OH2            11.7756794280      -11.5836924159        6.1530936648  W2        11764           0.0000000000
     34316     11439  TIP3      H1             11.0437794280      -11.3553224159        6.7261536648  W2        11764           0.0000000000
     34317     11439  TIP3      H2             12.2228994280      -12.2974224159        6.6078436648  W2        11764           0.0000000000
     34318     11440  TIP3      OH2            11.6730294280      -13.4094324159       15.2207936648  W2        11765           0.0000000000
     34319     11440  TIP3      H1             11.7529394280      -12.6459924159       15.7926436648  W2        11765           0.0000000000
     34320     11440  TIP3      H2             11.0717994280      -13.1301924159       14.5303036648  W2        11765           0.0000000000
     34321     11441  TIP3      OH2             3.4210494280      -10.9530724159        8.0355936648  W2        11766           0.0000000000
     34322     11441  TIP3      H1              3.0905694280      -11.3237324159        7.2172936648  W2        11766           0.0000000000
     34323     11441  TIP3      H2              4.0094594280      -11.6236724159        8.3824236648  W2        11766           0.0000000000
     34324     11442  TIP3      OH2             4.7877994280       -7.5250124159       10.7168136648  W2        11767           0.0000000000
     34325     11442  TIP3      H1              4.6929294280       -8.1037024159        9.9602736648  W2        11767           0.0000000000
     34326     11442  TIP3      H2              5.5171594280       -7.8964424159       11.2130936648  W2        11767           0.0000000000
     34327     11443  TIP3      OH2             3.7875994280      -12.1845124159       11.6690936648  W2        11768           0.0000000000
     34328     11443  TIP3      H1              4.3528494280      -12.0630924159       10.9062136648  W2        11768           0.0000000000
     34329     11443  TIP3      H2              4.1064894280      -11.5470124159       12.3079436648  W2        11768           0.0000000000
     34330     11444  TIP3      OH2            10.0968194280       -6.6813224159       12.4031436648  W2        11769           0.0000000000
     34331     11444  TIP3      H1              9.8564794280       -6.0190124159       13.0510636648  W2        11769           0.0000000000
     34332     11444  TIP3      H2              9.8986394280       -7.5158024159       12.8281036648  W2        11769           0.0000000000
     34333     11445  TIP3      OH2             4.6676694280       -7.7852424159       16.3862836648  W2        11770           0.0000000000
     34334     11445  TIP3      H1              4.3564194280       -7.0029224159       16.8416036648  W2        11770           0.0000000000
     34335     11445  TIP3      H2              4.0176894280       -7.9383324159       15.7004836648  W2        11770           0.0000000000
     34336     11446  TIP3      OH2            10.6466294280      -12.4214024159        3.8382136648  W2        11771           0.0000000000
     34337     11446  TIP3      H1             11.2261794280      -12.2713724159        4.5851036648  W2        11771           0.0000000000
     34338     11446  TIP3      H2             11.0606294280      -11.9506624159        3.1148536648  W2        11771           0.0000000000
     34339     11447  TIP3      OH2             1.5876594280      -11.5871324159       15.6148536648  W2        11772           0.0000000000
     34340     11447  TIP3      H1              1.6579794280      -10.9364524159       16.3133536648  W2        11772           0.0000000000
     34341     11447  TIP3      H2              0.6968794280      -11.4843824159       15.2799436648  W2        11772           0.0000000000
     34342     11448  TIP3      OH2             8.3731194280       -5.6845524159        7.2735236648  W2        11773           0.0000000000
     34343     11448  TIP3      H1              8.8468794280       -5.3889224159        8.0509436648  W2        11773           0.0000000000
     34344     11448  TIP3      H2              7.8100494280       -4.9463924159        7.0404836648  W2        11773           0.0000000000
     34345     11449  TIP3      OH2             2.9072594280       -5.7137424159       17.1496636648  W2        11774           0.0000000000
     34346     11449  TIP3      H1              2.9147894280       -5.8497724159       16.2022136648  W2        11774           0.0000000000
     34347     11449  TIP3      H2              1.9912994280       -5.8309324159       17.4016636648  W2        11774           0.0000000000
     34348     11450  TIP3      OH2            14.3454694280      -20.6713624159        3.6511836648  W2        11775           0.0000000000
     34349     11450  TIP3      H1             13.4455394280      -20.5324624159        3.9462436648  W2        11775           0.0000000000
     34350     11450  TIP3      H2             14.5973094280      -19.8399024159        3.2493536648  W2        11775           0.0000000000
     34351     11451  TIP3      OH2             2.4113194280      -11.8836424159        5.6248736648  W2        11776           0.0000000000
     34352     11451  TIP3      H1              2.1194494280      -11.1154724159        5.1340036648  W2        11776           0.0000000000
     34353     11451  TIP3      H2              1.7368394280      -12.5430224159        5.4620136648  W2        11776           0.0000000000
     34354     11452  TIP3      OH2            15.5346094280       -6.3051224159        2.0275736648  W2        11777           0.0000000000
     34355     11452  TIP3      H1             15.6079594280       -5.3661024159        2.1981036648  W2        11777           0.0000000000
     34356     11452  TIP3      H2             16.4401194280       -6.6102624159        1.9713036648  W2        11777           0.0000000000
     34357     11453  TIP3      OH2            -1.4956705720       -9.5207224159       14.4398536648  W2        11778           0.0000000000
     34358     11453  TIP3      H1             -1.9968305720       -9.5487824159       13.6248236648  W2        11778           0.0000000000
     34359     11453  TIP3      H2             -1.4903005720      -10.4264024159       14.7495836648  W2        11778           0.0000000000
     34360     11454  TIP3      OH2            -1.7454005720       -6.7403424159       11.3238736648  W2        11779           0.0000000000
     34361     11454  TIP3      H1             -0.7993405720       -6.8846424159       11.3048236648  W2        11779           0.0000000000
     34362     11454  TIP3      H2             -1.8577705720       -5.9560624159       11.8609936648  W2        11779           0.0000000000
     34363     11455  TIP3      OH2            16.4524494280       -6.0743724159       17.0062436648  W2        11780           0.0000000000
     34364     11455  TIP3      H1             16.4031294280       -7.0295624159       16.9690036648  W2        11780           0.0000000000
     34365     11455  TIP3      H2             15.6256794280       -5.8068424159       17.4076236648  W2        11780           0.0000000000
     34366     11456  TIP3      OH2             7.4308494280       -6.5004524159       15.8823836648  W2        11781           0.0000000000
     34367     11456  TIP3      H1              7.5183094280       -5.6739924159       16.3572936648  W2        11781           0.0000000000
     34368     11456  TIP3      H2              6.5673594280       -6.8300724159       16.1313136648  W2        11781           0.0000000000
     34369     11457  TIP3      OH2             7.8454294280       -2.7280824159        5.6884436648  W2        11782           0.0000000000
     34370     11457  TIP3      H1              7.7700294280       -2.8493624159        4.7419636648  W2        11782           0.0000000000
     34371     11457  TIP3      H2              7.8782994280       -1.7788124159        5.8069036648  W2        11782           0.0000000000
     34372     11458  TIP3      OH2             1.4988094280       -3.9393824159        7.4693436648  W2        11783           0.0000000000
     34373     11458  TIP3      H1              1.6508494280       -4.2873424159        8.3479936648  W2        11783           0.0000000000
     34374     11458  TIP3      H2              0.6478494280       -4.2956524159        7.2140636648  W2        11783           0.0000000000
     34375     11459  TIP3      OH2            10.9470294280       -3.5740624159        2.6906836648  W2        11784           0.0000000000
     34376     11459  TIP3      H1             11.3218694280       -4.3184524159        2.2199436648  W2        11784           0.0000000000
     34377     11459  TIP3      H2             10.9513994280       -3.8440024159        3.6090136648  W2        11784           0.0000000000
     34378     11460  TIP3      OH2            10.6158394280       -3.6483524159        5.4399036648  W2        11785           0.0000000000
     34379     11460  TIP3      H1              9.6808194280       -3.5481624159        5.6186036648  W2        11785           0.0000000000
     34380     11460  TIP3      H2             10.8960294280       -4.3577524159        6.0182236648  W2        11785           0.0000000000
     34381     11461  TIP3      OH2            13.6044294280      -14.5811224159       17.4864636648  W2        11786           0.0000000000
     34382     11461  TIP3      H1             13.1971094280      -14.1005624159       16.7657936648  W2        11786           0.0000000000
     34383     11461  TIP3      H2             13.6449994280      -15.4865224159       17.1785436648  W2        11786           0.0000000000
     34384     11462  TIP3      OH2             0.7533794280       -8.1971824159       15.4831336648  W2        11787           0.0000000000
     34385     11462  TIP3      H1              0.9695094280       -8.5586224159       16.3427136648  W2        11787           0.0000000000
     34386     11462  TIP3      H2             -0.1021505720       -8.5718024159       15.2734836648  W2        11787           0.0000000000
     34387     11463  TIP3      OH2             3.3721794280      -19.7271324159       11.4785536648  W2        11788           0.0000000000
     34388     11463  TIP3      H1              2.5105494280      -19.8143124159       11.0708436648  W2        11788           0.0000000000
     34389     11463  TIP3      H2              3.3497494280      -18.8711224159       11.9063136648  W2        11788           0.0000000000
     34390     11464  TIP3      OH2             8.0349594280      -20.0050924159       14.8532536648  W2        11789           0.0000000000
     34391     11464  TIP3      H1              8.4552694280      -20.4203824159       15.6063136648  W2        11789           0.0000000000
     34392     11464  TIP3      H2              7.1019194280      -20.1837624159       14.9704536648  W2        11789           0.0000000000
     34393     11465  TIP3      OH2            11.3614494280      -16.2495724159       15.7067036648  W2        11790           0.0000000000
     34394     11465  TIP3      H1             10.8473994280      -16.3753524159       16.5043036648  W2        11790           0.0000000000
     34395     11465  TIP3      H2             11.2059194280      -15.3372624159       15.4623236648  W2        11790           0.0000000000
     34396     11466  TIP3      OH2            12.1239394280      -11.3885724159        1.4680036648  W2        11791           0.0000000000
     34397     11466  TIP3      H1             12.1660194280      -11.6111824159        0.5380036648  W2        11791           0.0000000000
     34398     11466  TIP3      H2             12.9731494280      -10.9898624159        1.6579936648  W2        11791           0.0000000000
     34399     11467  TIP3      OH2             7.6966894280      -17.5127524159        2.1383336648  W2        11792           0.0000000000
     34400     11467  TIP3      H1              7.4431694280      -17.4935924159        3.0611436648  W2        11792           0.0000000000
     34401     11467  TIP3      H2              7.4398994280      -18.3842124159        1.8369536648  W2        11792           0.0000000000
     34402     11468  TIP3      OH2             3.4631894280      -14.7616824159       12.5735736648  W2        11793           0.0000000000
     34403     11468  TIP3      H1              2.8213994280      -14.8019524159       13.2825836648  W2        11793           0.0000000000
     34404     11468  TIP3      H2              3.5003894280      -13.8352124159       12.3358736648  W2        11793           0.0000000000
     34405     11469  TIP3      OH2             3.4600994280      -14.5406724159        7.4855736648  W2        11794           0.0000000000
     34406     11469  TIP3      H1              2.5673894280      -14.8810624159        7.4269536648  W2        11794           0.0000000000
     34407     11469  TIP3      H2              3.9107594280      -14.9175824159        6.7298936648  W2        11794           0.0000000000
     34408     11470  TIP3      OH2             8.9956494280      -14.1246424159        6.3026536648  W2        11795           0.0000000000
     34409     11470  TIP3      H1              8.5866794280      -13.3097824159        6.0111336648  W2        11795           0.0000000000
     34410     11470  TIP3      H2              9.7162694280      -14.2646324159        5.6883636648  W2        11795           0.0000000000
     34411     11471  TIP3      OH2             8.0978094280      -13.9490024159       17.7907236648  W2        11796           0.0000000000
     34412     11471  TIP3      H1              7.5351894280      -14.6538424159       18.1115036648  W2        11796           0.0000000000
     34413     11471  TIP3      H2              8.9241494280      -14.0698124159       18.2584836648  W2        11796           0.0000000000
     34414     11472  TIP3      OH2            10.0004194280      -14.6786024159        9.1166236648  W2        11797           0.0000000000
     34415     11472  TIP3      H1              9.8048694280      -14.0729224159        8.4016836648  W2        11797           0.0000000000
     34416     11472  TIP3      H2             10.1816794280      -15.5120824159        8.6822536648  W2        11797           0.0000000000
     34417     11473  TIP3      OH2             1.2132394280      -14.4413324159       14.4407736648  W2        11798           0.0000000000
     34418     11473  TIP3      H1              1.1751794280      -14.0411724159       15.3094836648  W2        11798           0.0000000000
     34419     11473  TIP3      H2              0.7223494280      -15.2580924159       14.5310636648  W2        11798           0.0000000000
     34420     11474  TIP3      OH2             4.5789794280      -17.0671024159        1.2393736648  W2        11799           0.0000000000
     34421     11474  TIP3      H1              4.1480494280      -17.5120924159        1.9691136648  W2        11799           0.0000000000
     34422     11474  TIP3      H2              3.8608494280      -16.6954724159        0.7271236648  W2        11799           0.0000000000
     34423     11475  TIP3      OH2            -2.1786805720      -17.3251524159        8.2912436648  W2        11800           0.0000000000
     34424     11475  TIP3      H1             -1.5479105720      -17.3539424159        9.0106336648  W2        11800           0.0000000000
     34425     11475  TIP3      H2             -1.7292505720      -17.7502824159        7.5608336648  W2        11800           0.0000000000
     34426     11476  TIP3      OH2            -0.9044705720      -16.5789524159        3.7152836648  W2        11801           0.0000000000
     34427     11476  TIP3      H1             -0.4303005720      -15.9879624159        3.1303736648  W2        11801           0.0000000000
     34428     11476  TIP3      H2             -1.6218305720      -16.0486624159        4.0622936648  W2        11801           0.0000000000
     34429     11477  TIP3      OH2             9.2643394280      -13.0404724159       13.7878636648  W2        11802           0.0000000000
     34430     11477  TIP3      H1              9.5878194280      -13.6715024159       13.1449136648  W2        11802           0.0000000000
     34431     11477  TIP3      H2              8.8242694280      -13.5752524159       14.4486036648  W2        11802           0.0000000000
     34432     11478  TIP3      OH2             6.0416294280      -17.1129224159        8.5719836648  W2        11803           0.0000000000
     34433     11478  TIP3      H1              5.1307394280      -17.0562424159        8.8605836648  W2        11803           0.0000000000
     34434     11478  TIP3      H2              6.5469194280      -17.1733724159        9.3827036648  W2        11803           0.0000000000
     34435     11479  TIP3      OH2             0.8699694280      -15.4842924159        7.3987436648  W2        11804           0.0000000000
     34436     11479  TIP3      H1             -0.0192305720      -15.3847424159        7.0587036648  W2        11804           0.0000000000
     34437     11479  TIP3      H2              1.1664594280      -16.3259924159        7.0525336648  W2        11804           0.0000000000
     34438     11480  TIP3      OH2             4.5231494280      -15.4840324159        5.0552036648  W2        11805           0.0000000000
     34439     11480  TIP3      H1              5.4546994280      -15.3550324159        5.2335136648  W2        11805           0.0000000000
     34440     11480  TIP3      H2              4.3081794280      -14.8146024159        4.4056736648  W2        11805           0.0000000000
     34441     11481  TIP3      OH2            10.4468194280      -17.8782924159       11.8361636648  W2        11806           0.0000000000
     34442     11481  TIP3      H1              9.7699794280      -17.7469824159       12.5001336648  W2        11806           0.0000000000
     34443     11481  TIP3      H2              9.9613094280      -18.0333424159       11.0259336648  W2        11806           0.0000000000
     34444     11482  TIP3      OH2             3.1971694280      -14.2898124159        2.6218136648  W2        11807           0.0000000000
     34445     11482  TIP3      H1              2.6546794280      -14.6694324159        1.9305736648  W2        11807           0.0000000000
     34446     11482  TIP3      H2              4.0306594280      -14.0953424159        2.1932236648  W2        11807           0.0000000000
     34447     11483  TIP3      OH2             1.3323094280       -9.7326224159       17.7209736648  W2        11809           0.0000000000
     34448     11483  TIP3      H1              2.0645494280       -9.4780324159       18.2824236648  W2        11809           0.0000000000
     34449     11483  TIP3      H2              0.5521794280       -9.5280824159       18.2365136648  W2        11809           0.0000000000
     34450     11484  TIP3      OH2             7.3615994280      -14.3256224159       10.4589436648  W2        11810           0.0000000000
     34451     11484  TIP3      H1              7.9259394280      -14.8719624159        9.9119036648  W2        11810           0.0000000000
     34452     11484  TIP3      H2              7.2139394280      -14.8474324159       11.2477036648  W2        11810           0.0000000000
     34453     11485  TIP3      OH2             2.3635694280      -18.1890124159        6.8774236648  W2        11811           0.0000000000
     34454     11485  TIP3      H1              2.0465194280      -19.0914824159        6.8419636648  W2        11811           0.0000000000
     34455     11485  TIP3      H2              3.1449794280      -18.1872724159        6.3245836648  W2        11811           0.0000000000
     34456     11486  TIP3      OH2             5.9881894280      -15.9370124159       12.8729836648  W2        11812           0.0000000000
     34457     11486  TIP3      H1              5.1527194280      -15.4830624159       12.9832236648  W2        11812           0.0000000000
     34458     11486  TIP3      H2              6.5122494280      -15.6611624159       13.6249736648  W2        11812           0.0000000000
     34459     11487  TIP3      OH2             6.5324494280       -9.7242424159        4.5576236648  W2        11813           0.0000000000
     34460     11487  TIP3      H1              5.7875494280      -10.2317124159        4.2354136648  W2        11813           0.0000000000
     34461     11487  TIP3      H2              6.3981694280       -9.6754424159        5.5041036648  W2        11813           0.0000000000
     34462     11488  TIP3      OH2            13.6823394280      -10.5914224159       13.3443836648  W2        11814           0.0000000000
     34463     11488  TIP3      H1             14.3242194280      -10.1347924159       12.8006036648  W2        11814           0.0000000000
     34464     11488  TIP3      H2             12.8520294280      -10.4781824159       12.8817936648  W2        11814           0.0000000000
     34465     11489  TIP3      OH2            10.4301294280      -16.9102524159        2.7568836648  W2        11815           0.0000000000
     34466     11489  TIP3      H1              9.4915494280      -16.7986924159        2.6057636648  W2        11815           0.0000000000
     34467     11489  TIP3      H2             10.7273394280      -16.0535624159        3.0634536648  W2        11815           0.0000000000
     34468     11490  TIP3      OH2             8.0516594280       -9.5399124159       15.7945336648  W2        11816           0.0000000000
     34469     11490  TIP3      H1              7.7062694280       -9.9216724159       16.6014936648  W2        11816           0.0000000000
     34470     11490  TIP3      H2              7.8516694280       -8.6065524159       15.8658236648  W2        11816           0.0000000000
     34471     11491  TIP3      OH2            11.1484794280      -15.0429824159        4.4176236648  W2        11817           0.0000000000
     34472     11491  TIP3      H1             12.0403794280      -15.1804824159        4.7367436648  W2        11817           0.0000000000
     34473     11491  TIP3      H2             11.2048394280      -14.2523724159        3.8809736648  W2        11817           0.0000000000
     34474     11492  TIP3      OH2             1.6572794280      -10.4292424159       10.3274136648  W2        11818           0.0000000000
     34475     11492  TIP3      H1              2.4019994280      -10.4316724159        9.7260636648  W2        11818           0.0000000000
     34476     11492  TIP3      H2              1.7349394280      -11.2528624159       10.8089236648  W2        11818           0.0000000000
     34477     11493  TIP3      OH2             8.6578594280       -8.2658124159        3.5830836648  W2        11819           0.0000000000
     34478     11493  TIP3      H1              8.3626994280       -7.4390224159        3.9645636648  W2        11819           0.0000000000
     34479     11493  TIP3      H2              7.9548594280       -8.8851224159        3.7792236648  W2        11819           0.0000000000
     34480     11494  TIP3      OH2            -1.3347505720      -11.9685524159       15.6422636648  W2        11820           0.0000000000
     34481     11494  TIP3      H1             -1.1118905720      -12.3865924159       16.4740136648  W2        11820           0.0000000000
     34482     11494  TIP3      H2             -1.9367405720      -12.5810524159       15.2195436648  W2        11820           0.0000000000
     34483     11495  TIP3      OH2            10.3020194280       -7.0783624159       15.7450336648  W2        11822           0.0000000000
     34484     11495  TIP3      H1              9.4014494280       -6.8951024159       15.4774236648  W2        11822           0.0000000000
     34485     11495  TIP3      H2             10.3361294280       -6.8194324159       16.6659136648  W2        11822           0.0000000000
     34486     11496  TIP3      OH2            16.0333494280      -14.8335724159        4.1122936648  W2        11823           0.0000000000
     34487     11496  TIP3      H1             15.4789794280      -15.2297724159        3.4400436648  W2        11823           0.0000000000
     34488     11496  TIP3      H2             16.1337094280      -13.9230524159        3.8346236648  W2        11823           0.0000000000
     34489     11497  TIP3      OH2            15.9965494280       -9.0334024159       16.9494436648  W2        11824           0.0000000000
     34490     11497  TIP3      H1             15.1453994280       -8.7950224159       16.5820836648  W2        11824           0.0000000000
     34491     11497  TIP3      H2             16.5868894280       -9.0500824159       16.1961536648  W2        11824           0.0000000000
     34492     11498  TIP3      OH2            14.3285194280       -6.0475324159        4.5775036648  W2        11825           0.0000000000
     34493     11498  TIP3      H1             13.9556294280       -6.8731524159        4.8865636648  W2        11825           0.0000000000
     34494     11498  TIP3      H2             14.6058694280       -6.2305924159        3.6798436648  W2        11825           0.0000000000
     34495     11499  TIP3      OH2            11.4889094280      -11.2395824159       11.5986936648  W2        11826           0.0000000000
     34496     11499  TIP3      H1             10.5605994280      -11.4713924159       11.5716236648  W2        11826           0.0000000000
     34497     11499  TIP3      H2             11.9400194280      -12.0166024159       11.2685736648  W2        11826           0.0000000000
     34498     11500  TIP3      OH2             4.0322194280       -6.9114224159        7.7315636648  W2        11827           0.0000000000
     34499     11500  TIP3      H1              4.5594394280       -6.1379824159        7.5314436648  W2        11827           0.0000000000
     34500     11500  TIP3      H2              3.1520694280       -6.6865024159        7.4299636648  W2        11827           0.0000000000
     34501     11501  TIP3      OH2            -0.2130105720      -12.0490124159        2.3188036648  W2        11828           0.0000000000
     34502     11501  TIP3      H1              0.4029794280      -11.4222924159        2.6982836648  W2        11828           0.0000000000
     34503     11501  TIP3      H2             -1.0747505720      -11.7330324159        2.5904536648  W2        11828           0.0000000000
     34504     11502  TIP3      OH2             5.4594494280       -9.2484324159        7.3079936648  W2        11829           0.0000000000
     34505     11502  TIP3      H1              5.2184494280       -8.3229924159        7.3495236648  W2        11829           0.0000000000
     34506     11502  TIP3      H2              4.7188094280       -9.7073024159        7.7043836648  W2        11829           0.0000000000
     34507     11503  TIP3      OH2             5.9741094280       -5.0990724159       13.6231036648  W2        11830           0.0000000000
     34508     11503  TIP3      H1              6.3365794280       -4.2445124159       13.3895436648  W2        11830           0.0000000000
     34509     11503  TIP3      H2              6.5056294280       -5.3909124159       14.3637336648  W2        11830           0.0000000000
     34510     11504  TIP3      OH2             4.1425294280       -4.2266724159        6.8532136648  W2        11831           0.0000000000
     34511     11504  TIP3      H1              3.1925794280       -4.1209324159        6.9045436648  W2        11831           0.0000000000
     34512     11504  TIP3      H2              4.4943394280       -3.4059324159        7.1979636648  W2        11831           0.0000000000
     34513     11505  TIP3      OH2             9.5181894280       -9.0000024159       13.3236636648  W2        11832           0.0000000000
     34514     11505  TIP3      H1              9.0923194280       -9.2278324159       14.1500636648  W2        11832           0.0000000000
     34515     11505  TIP3      H2             10.0987694280       -9.7388224159       13.1411936648  W2        11832           0.0000000000
     34516     11506  TIP3      OH2            11.7210794280       -8.0709524159        2.3975636648  W2        11833           0.0000000000
     34517     11506  TIP3      H1             12.0743894280       -8.4509724159        3.2019136648  W2        11833           0.0000000000
     34518     11506  TIP3      H2             10.7724294280       -8.1644724159        2.4844936648  W2        11833           0.0000000000
     34519     11507  TIP3      OH2            12.1766094280       -4.4480524159       15.7931436648  W2        11834           0.0000000000
     34520     11507  TIP3      H1             11.5749294280       -5.0037624159       15.2977736648  W2        11834           0.0000000000
     34521     11507  TIP3      H2             12.4579794280       -3.7810724159       15.1668836648  W2        11834           0.0000000000
     34522     11508  TIP3      OH2            16.2245194280       -3.5917024159        2.5985836648  W2        11835           0.0000000000
     34523     11508  TIP3      H1             16.9683094280       -3.0056524159        2.4587436648  W2        11835           0.0000000000
     34524     11508  TIP3      H2             15.5303294280       -3.0231224159        2.9318236648  W2        11835           0.0000000000
     34525     11509  TIP3      OH2             0.2991994280      -17.2152824159       15.2004036648  W2        11836           0.0000000000
     34526     11509  TIP3      H1             -0.5935705720      -16.8767424159       15.1328036648  W2        11836           0.0000000000
     34527     11509  TIP3      H2              0.2004794280      -18.0706724159       15.6184836648  W2        11836           0.0000000000
     34528     11510  TIP3      OH2            12.5870094280       -9.3987524159        4.6243536648  W2        11837           0.0000000000
     34529     11510  TIP3      H1             12.3097694280      -10.1268224159        5.1804636648  W2        11837           0.0000000000
     34530     11510  TIP3      H2             13.5143094280       -9.2795524159        4.8296136648  W2        11837           0.0000000000
     34531     11511  TIP3      OH2            -0.0496005720       -5.4108424159       13.6353436648  W2        11838           0.0000000000
     34532     11511  TIP3      H1              0.1674294280       -6.3426024159       13.6043136648  W2        11838           0.0000000000
     34533     11511  TIP3      H2              0.1967494280       -5.1363424159       14.5186236648  W2        11838           0.0000000000
     34534     11512  TIP3      OH2             5.8118594280       -6.9593424159        0.8445636648  W2        11839           0.0000000000
     34535     11512  TIP3      H1              6.0508394280       -7.7075324159        0.2974536648  W2        11839           0.0000000000
     34536     11512  TIP3      H2              5.5429894280       -7.3471724159        1.6773436648  W2        11839           0.0000000000
     34537     11513  TIP3      OH2             4.7489194280       -7.3889624159        3.3008236648  W2        11840           0.0000000000
     34538     11513  TIP3      H1              4.8957194280       -7.9089824159        4.0909136648  W2        11840           0.0000000000
     34539     11513  TIP3      H2              4.7460894280       -6.4822024159        3.6074136648  W2        11840           0.0000000000
     34540     11514  TIP3      OH2             1.2020294280      -10.1366324159        3.8113636648  W2        11841           0.0000000000
     34541     11514  TIP3      H1              0.5159594280       -9.7843824159        4.3783336648  W2        11841           0.0000000000
     34542     11514  TIP3      H2              1.7248194280       -9.3736724159        3.5647936648  W2        11841           0.0000000000
     34543     11515  TIP3      OH2             9.0335394280      -17.4742524159       14.0902636648  W2        11842           0.0000000000
     34544     11515  TIP3      H1              9.7323294280      -17.4003824159       14.7402336648  W2        11842           0.0000000000
     34545     11515  TIP3      H2              8.6526794280      -18.3387524159       14.2445536648  W2        11842           0.0000000000
     34546     11516  TIP3      OH2             9.8180294280      -17.8220824159        5.1874936648  W2        11843           0.0000000000
     34547     11516  TIP3      H1             10.0378594280      -17.3505424159        4.3840336648  W2        11843           0.0000000000
     34548     11516  TIP3      H2             10.3764294280      -17.4278224159        5.8575536648  W2        11843           0.0000000000
     34549     11517  TIP3      OH2             7.4866394280       -5.6916024159        4.0502436648  W2        11844           0.0000000000
     34550     11517  TIP3      H1              6.6702494280       -5.1946324159        4.1026736648  W2        11844           0.0000000000
     34551     11517  TIP3      H2              8.0162694280       -5.2162524159        3.4101236648  W2        11844           0.0000000000
     34552     11518  TIP3      OH2             7.0180194280      -16.0942024159        6.0223336648  W2        11845           0.0000000000
     34553     11518  TIP3      H1              7.8302794280      -15.5898824159        6.0685036648  W2        11845           0.0000000000
     34554     11518  TIP3      H2              6.7733194280      -16.2392324159        6.9362936648  W2        11845           0.0000000000
     34555     11519  TIP3      OH2             7.5536594280      -15.1079324159       15.2069936648  W2        11846           0.0000000000
     34556     11519  TIP3      H1              7.6726894280      -14.5343924159       15.9640336648  W2        11846           0.0000000000
     34557     11519  TIP3      H2              8.2091194280      -15.7959924159       15.3217736648  W2        11846           0.0000000000
     34558     11520  TIP3      OH2             7.9016894280      -19.0129024159        6.9604436648  W2        11847           0.0000000000
     34559     11520  TIP3      H1              7.5550394280      -18.3958424159        7.6048736648  W2        11847           0.0000000000
     34560     11520  TIP3      H2              8.5603794280      -18.5123324159        6.4789936648  W2        11847           0.0000000000
     34561     11521  TIP3      OH2             4.8249494280       -4.6478824159        4.0319336648  W2        11848           0.0000000000
     34562     11521  TIP3      H1              4.9858194280       -3.8481324159        3.5311936648  W2        11848           0.0000000000
     34563     11521  TIP3      H2              4.6277294280       -4.3412824159        4.9169936648  W2        11848           0.0000000000
     34564     11522  TIP3      OH2             3.5593894280      -17.9499624159        3.6476936648  W2        11849           0.0000000000
     34565     11522  TIP3      H1              3.4758694280      -17.0616524159        3.9943336648  W2        11849           0.0000000000
     34566     11522  TIP3      H2              4.4494194280      -18.2152924159        3.8793736648  W2        11849           0.0000000000
     34567     11523  TIP3      OH2            13.7582394280      -17.2009024159       16.0419636648  W2        11850           0.0000000000
     34568     11523  TIP3      H1             12.8418194280      -16.9387324159       15.9543336648  W2        11850           0.0000000000
     34569     11523  TIP3      H2             14.0937394280      -17.2040024159       15.1454936648  W2        11850           0.0000000000
     34570     11524  TIP3      OH2            12.3603394280      -13.4508024159       10.1376936648  W2        11851           0.0000000000
     34571     11524  TIP3      H1             11.5627794280      -13.8657824159        9.8091936648  W2        11851           0.0000000000
     34572     11524  TIP3      H2             12.8054494280      -14.1414324159       10.6287436648  W2        11851           0.0000000000
     34573     11525  TIP3      OH2             1.8179194280       -7.5227424159        2.7081436648  W2        11852           0.0000000000
     34574     11525  TIP3      H1              2.4100694280       -6.8232624159        2.9843836648  W2        11852           0.0000000000
     34575     11525  TIP3      H2              2.2772194280       -7.9557924159        1.9886036648  W2        11852           0.0000000000
     34576     11526  TIP3      OH2             0.1338394280      -14.8584424159        1.8240836648  W2        11853           0.0000000000
     34577     11526  TIP3      H1              0.0890994280      -13.9191324159        2.0027836648  W2        11853           0.0000000000
     34578     11526  TIP3      H2             -0.7538405720      -15.0939524159        1.5542936648  W2        11853           0.0000000000
     34579     11527  TIP3      OH2            13.4467994280       -4.1945524159       11.7600436648  W2        11854           0.0000000000
     34580     11527  TIP3      H1             13.2912294280       -3.5161124159       11.1029736648  W2        11854           0.0000000000
     34581     11527  TIP3      H2             14.3794394280       -4.1226224159       11.9631036648  W2        11854           0.0000000000
     34582     11528  TIP3      OH2             0.9420394280      -20.0767824159       10.4971836648  W2        11855           0.0000000000
     34583     11528  TIP3      H1              0.7130194280      -20.0175324159        9.5696836648  W2        11855           0.0000000000
     34584     11528  TIP3      H2              0.4993794280      -20.8682324159       10.8035936648  W2        11855           0.0000000000
     34585     11529  TIP3      OH2            -0.1276305720       -6.1360724159        6.6577636648  W2        11856           0.0000000000
     34586     11529  TIP3      H1             -0.9597705720       -5.6638024159        6.6849036648  W2        11856           0.0000000000
     34587     11529  TIP3      H2              0.4181994280       -5.6263124159        6.0590736648  W2        11856           0.0000000000
     34588     11530  TIP3      OH2             7.8500394280       -5.0962024159        0.9831636648  W2        11859           0.0000000000
     34589     11530  TIP3      H1              7.2061394280       -5.7273424159        1.3045336648  W2        11859           0.0000000000
     34590     11530  TIP3      H2              8.6118694280       -5.6274024159        0.7515136648  W2        11859           0.0000000000
     34591     11531  TIP3      OH2            12.4543294280       -5.2792124159        1.2169636648  W2        11861           0.0000000000
     34592     11531  TIP3      H1             12.7373694280       -6.0736924159        1.6696536648  W2        11861           0.0000000000
     34593     11531  TIP3      H2             13.1941194280       -5.0461124159        0.6560736648  W2        11861           0.0000000000
     34594     11532  TIP3      OH2             3.4090594280       -9.3697224159        1.0744536648  W2        11863           0.0000000000
     34595     11532  TIP3      H1              3.4734694280      -10.1637624159        1.6050936648  W2        11863           0.0000000000
     34596     11532  TIP3      H2              4.0619794280       -9.4884424159        0.3846536648  W2        11863           0.0000000000
     34597     11533  TIP3      OH2             8.7613994280       -8.3225524159        0.8102536648  W2        11865           0.0000000000
     34598     11533  TIP3      H1              8.4928094280       -8.1423424159        1.7111436648  W2        11865           0.0000000000
     34599     11533  TIP3      H2              8.5549594280       -9.2479324159        0.6788336648  W2        11865           0.0000000000
     34600     11534  TIP3      OH2            11.4578194280       -9.8277524159       15.7578636648  W2        11866           0.0000000000
     34601     11534  TIP3      H1             12.2032994280       -9.2393824159       15.6382636648  W2        11866           0.0000000000
     34602     11534  TIP3      H2             10.7004994280       -9.2457824159       15.8211736648  W2        11866           0.0000000000
     34603     11535  TIP3      OH2             4.5584394280      -11.3971024159        3.3802536648  W2        11868           0.0000000000
     34604     11535  TIP3      H1              4.0986394280      -11.8812724159        4.0661036648  W2        11868           0.0000000000
     34605     11535  TIP3      H2              4.8133094280      -12.0655624159        2.7443036648  W2        11868           0.0000000000
     34606     11536  TIP3      OH2             3.8473694280      -13.5043924159       15.7362136648  W2        11869           0.0000000000
     34607     11536  TIP3      H1              3.2289794280      -12.8297324159       16.0166836648  W2        11869           0.0000000000
     34608     11536  TIP3      H2              4.1914894280      -13.1830024159       14.9028336648  W2        11869           0.0000000000
     34609     11537  TIP3      OH2             5.6294794280      -13.1539224159        1.6425736648  W2        11870           0.0000000000
     34610     11537  TIP3      H1              5.4489794280      -13.3088024159        0.7154036648  W2        11870           0.0000000000
     34611     11537  TIP3      H2              6.5795294280      -13.0460524159        1.6873636648  W2        11870           0.0000000000
     34612     11538  TIP3      OH2            15.0193094280      -10.7995024159        1.0883836648  W2        11872           0.0000000000
     34613     11538  TIP3      H1             14.7457894280      -11.2239524159        0.2752136648  W2        11872           0.0000000000
     34614     11538  TIP3      H2             15.0587194280       -9.8680524159        0.8714236648  W2        11872           0.0000000000
     34615     11539  TIP3      OH2             4.1867394280      -16.1493124159       16.8185236648  W2        11873           0.0000000000
     34616     11539  TIP3      H1              4.3368294280      -16.8781824159       16.2164936648  W2        11873           0.0000000000
     34617     11539  TIP3      H2              4.1889794280      -15.3721424159       16.2597436648  W2        11873           0.0000000000
     34618     11540  TIP3      OH2             4.5993094280      -17.7797324159       14.3112636648  W2        11874           0.0000000000
     34619     11540  TIP3      H1              5.1350594280      -17.3280624159       13.6591936648  W2        11874           0.0000000000
     34620     11540  TIP3      H2              3.7472694280      -17.8877524159       13.8886736648  W2        11874           0.0000000000
     34621     11541  TIP3      OH2             6.1811494280      -12.3401124159       14.5507836648  W2        11875           0.0000000000
     34622     11541  TIP3      H1              6.9316294280      -12.4963624159       13.9775636648  W2        11875           0.0000000000
     34623     11541  TIP3      H2              5.8419794280      -11.4884524159       14.2753336648  W2        11875           0.0000000000
     34624     11542  TIP3      OH2            11.9134894280      -11.7364124159       17.6565836648  W2        11877           0.0000000000
     34625     11542  TIP3      H1             11.6319894280      -11.0269524159       17.0789636648  W2        11877           0.0000000000
     34626     11542  TIP3      H2             12.8559194280      -11.8091124159       17.5057036648  W2        11877           0.0000000000
     34627     11543  TIP3      OH2             5.4048594280      -20.3231624159       14.7426236648  W2        11879           0.0000000000
     34628     11543  TIP3      H1              5.3068194280      -19.3768424159       14.6372436648  W2        11879           0.0000000000
     34629     11543  TIP3      H2              4.6624794280      -20.6957824159       14.2669736648  W2        11879           0.0000000000
     34630     11544  TIP3      OH2             9.3845694280      -16.8742724159       17.3818136648  W2        11881           0.0000000000
     34631     11544  TIP3      H1              8.4371094280      -16.8423024159       17.5141436648  W2        11881           0.0000000000
     34632     11544  TIP3      H2              9.6972394280      -17.4995624159       18.0356336648  W2        11881           0.0000000000
     34633     11545  TIP3      OH2             5.6266694280      -21.0294224159       17.4139036648  W2        11884           0.0000000000
     34634     11545  TIP3      H1              6.3385094280      -21.6692024159       17.3998136648  W2        11884           0.0000000000
     34635     11545  TIP3      H2              5.5257094280      -20.7625924159       16.5002136648  W2        11884           0.0000000000
     34636     11546  TIP3      OH2             5.5266494280       -2.4635524159        2.6439336648  W2        11886           0.0000000000
     34637     11546  TIP3      H1              6.4597194280       -2.3056824159        2.7877736648  W2        11886           0.0000000000
     34638     11546  TIP3      H2              5.2625294280       -1.7882524159        2.0190836648  W2        11886           0.0000000000
     34639     11547  TIP3      OH2            -0.9048605720       -7.8271724159        2.1267436648  W2        11887           0.0000000000
     34640     11547  TIP3      H1              0.0090594280       -7.7482824159        2.4001336648  W2        11887           0.0000000000
     34641     11547  TIP3      H2             -0.8975505720       -8.5142124159        1.4603036648  W2        11887           0.0000000000
     34642     11548  TIP3      OH2            -2.2558005720       -2.4343224159        7.2041336648  W2        11888           0.0000000000
     34643     11548  TIP3      H1             -2.9030905720       -2.8961524159        6.6712536648  W2        11888           0.0000000000
     34644     11548  TIP3      H2             -1.9013405720       -3.1059924159        7.7867536648  W2        11888           0.0000000000
     34645     11549  TIP3      OH2            -1.3858805720       -4.3536224159        9.0087536648  W2        11889           0.0000000000
     34646     11549  TIP3      H1             -1.7202005720       -5.2338924159        9.1807736648  W2        11889           0.0000000000
     34647     11549  TIP3      H2             -1.1636405720       -4.0081224159        9.8733136648  W2        11889           0.0000000000
     34648     11550  TIP3      OH2            16.1625994280       -3.5439824159       11.9892336648  W2        11890           0.0000000000
     34649     11550  TIP3      H1             16.1412694280       -3.3591424159       12.9281736648  W2        11890           0.0000000000
     34650     11550  TIP3      H2             16.8532194280       -2.9755824159       11.6483736648  W2        11890           0.0000000000
     34651     11551  TIP3      OH2            15.7258894280       -3.9768724159       14.9111436648  W2        11891           0.0000000000
     34652     11551  TIP3      H1             15.2387594280       -4.7124624159       14.5398836648  W2        11891           0.0000000000
     34653     11551  TIP3      H2             16.2751594280       -4.3704824159       15.5890836648  W2        11891           0.0000000000
     34654     11552  TIP3      OH2            15.4775894280       -9.9306924159        5.0634236648  W2        11893           0.0000000000
     34655     11552  TIP3      H1             16.3277294280       -9.5096024159        5.1905836648  W2        11893           0.0000000000
     34656     11552  TIP3      H2             15.4830994280      -10.6706824159        5.6705636648  W2        11893           0.0000000000
     34657     11553  TIP3      OH2            15.8721494280      -11.8769524159        6.8869936648  W2        11894           0.0000000000
     34658     11553  TIP3      H1             15.1456094280      -12.3566924159        7.2847536648  W2        11894           0.0000000000
     34659     11553  TIP3      H2             16.4534794280      -11.6714824159        7.6191536648  W2        11894           0.0000000000
     34660     11554  TIP3      OH2            15.6312694280       -9.0922024159       11.8347536648  W2        11895           0.0000000000
     34661     11554  TIP3      H1             16.4646894280       -9.4702024159       11.5541136648  W2        11895           0.0000000000
     34662     11554  TIP3      H2             15.7432994280       -8.1490824159       11.7156636648  W2        11895           0.0000000000
     34663     11555  TIP3      OH2            14.1174994280       -6.2144524159       14.1415936648  W2        11896           0.0000000000
     34664     11555  TIP3      H1             13.4700294280       -5.8893024159       14.7671136648  W2        11896           0.0000000000
     34665     11555  TIP3      H2             13.5998994280       -6.6546824159       13.4674236648  W2        11896           0.0000000000
     34666     11556  TIP3      OH2            16.1404594280      -11.9761024159        3.2781236648  W2        11897           0.0000000000
     34667     11556  TIP3      H1             15.6185694280      -11.6196924159        2.5592136648  W2        11897           0.0000000000
     34668     11556  TIP3      H2             16.1073794280      -11.3013224159        3.9562136648  W2        11897           0.0000000000
     34669     11557  TIP3      OH2            14.4893594280      -14.7365424159        1.8288336648  W2        11898           0.0000000000
     34670     11557  TIP3      H1             14.5857994280      -14.0698424159        1.1488036648  W2        11898           0.0000000000
     34671     11557  TIP3      H2             14.3493194280      -15.5519124159        1.3473836648  W2        11898           0.0000000000
     34672     11558  TIP3      OH2            13.6588294280      -13.3563024159        7.4498636648  W2        11899           0.0000000000
     34673     11558  TIP3      H1             13.5087094280      -14.3014424159        7.4296436648  W2        11899           0.0000000000
     34674     11558  TIP3      H2             13.3052794280      -13.0751624159        8.2937736648  W2        11899           0.0000000000
     34675     11559  TIP3      OH2            -1.3059305720      -11.2780824159       11.4602436648  W2        11900           0.0000000000
     34676     11559  TIP3      H1             -1.1216405720      -11.3599124159       10.5245336648  W2        11900           0.0000000000
     34677     11559  TIP3      H2             -0.4566405720      -11.4023824159       11.8838836648  W2        11900           0.0000000000
     34678     11560  TIP3      OH2            14.5151194280      -11.3859724159       17.0886936648  W2        11901           0.0000000000
     34679     11560  TIP3      H1             15.0978494280      -12.1207424159       17.2804136648  W2        11901           0.0000000000
     34680     11560  TIP3      H2             15.0790494280      -10.6139424159       17.1352736648  W2        11901           0.0000000000
     34681     11561  TIP3      OH2            16.0118294280      -13.4833924159       17.7732336648  W2        11902           0.0000000000
     34682     11561  TIP3      H1             15.1484994280      -13.8621824159       17.6077036648  W2        11902           0.0000000000
     34683     11561  TIP3      H2             16.6161994280      -14.2219124159       17.6988136648  W2        11902           0.0000000000
     34684     11562  TIP3      OH2            13.7367394280      -17.3285624159        0.9463836648  W2        11903           0.0000000000
     34685     11562  TIP3      H1             14.3473194280      -17.6998824159        1.5832036648  W2        11903           0.0000000000
     34686     11562  TIP3      H2             12.8998894280      -17.7498724159        1.1423836648  W2        11903           0.0000000000
     34687     11563  TIP3      OH2            13.3693094280      -15.7737224159        5.9123736648  W2        11904           0.0000000000
     34688     11563  TIP3      H1             13.6490194280      -16.6806824159        6.0365436648  W2        11904           0.0000000000
     34689     11563  TIP3      H2             14.1284794280      -15.3395724159        5.5232936648  W2        11904           0.0000000000
     34690     11564  TIP3      OH2            13.9811394280      -15.1919824159       11.3482636648  W2        11905           0.0000000000
     34691     11564  TIP3      H1             14.9139394280      -14.9799924159       11.3138636648  W2        11905           0.0000000000
     34692     11564  TIP3      H2             13.7458894280      -15.0907724159       12.2705636648  W2        11905           0.0000000000
     34693     11565  TIP3      OH2            14.0103294280      -14.4554524159       14.1242036648  W2        11906           0.0000000000
     34694     11565  TIP3      H1             13.1674594280      -14.1874124159       14.4901836648  W2        11906           0.0000000000
     34695     11565  TIP3      H2             14.4527594280      -13.6332624159       13.9133136648  W2        11906           0.0000000000
     34696     11566  TIP3      OH2            -1.7084505720      -16.0075824159       17.6011236648  W2        11907           0.0000000000
     34697     11566  TIP3      H1             -0.7889605720      -16.1297524159       17.8374336648  W2        11907           0.0000000000
     34698     11566  TIP3      H2             -2.1580005720      -16.7576124159       17.9904736648  W2        11907           0.0000000000
     34699     11567  TIP3      OH2            13.9827894280      -18.5107924159        5.9605736648  W2        11909           0.0000000000
     34700     11567  TIP3      H1             14.1652894280      -18.9596424159        6.7860736648  W2        11909           0.0000000000
     34701     11567  TIP3      H2             13.3830794280      -19.0953524159        5.4970336648  W2        11909           0.0000000000
     34702     11568  TIP3      OH2            -0.4872005720      -17.6954224159       10.4924136648  W2        11910           0.0000000000
     34703     11568  TIP3      H1             -0.0420405720      -18.4871724159       10.7943836648  W2        11910           0.0000000000
     34704     11568  TIP3      H2             -0.0209005720      -16.9789024159       10.9229736648  W2        11910           0.0000000000
     34705     11569  TIP3      OH2            -2.1831705720      -14.6961224159       11.5614336648  W2        11911           0.0000000000
     34706     11569  TIP3      H1             -1.6911905720      -14.9170724159       10.7706336648  W2        11911           0.0000000000
     34707     11569  TIP3      H2             -1.8210805720      -13.8557824159       11.8423836648  W2        11911           0.0000000000
     34708     11570  TIP3      OH2            15.8494094280      -18.4429824159        2.4886036648  W2        11913           0.0000000000
     34709     11570  TIP3      H1             16.2616694280      -19.1644124159        2.0134036648  W2        11913           0.0000000000
     34710     11570  TIP3      H2             16.5310594280      -17.7735224159        2.5470336648  W2        11913           0.0000000000
     34711     11571  TIP3      OH2            -1.8695205720      -18.4382124159        5.6156736648  W2        11914           0.0000000000
     34712     11571  TIP3      H1             -2.7946805720      -18.2295524159        5.4862236648  W2        11914           0.0000000000
     34713     11571  TIP3      H2             -1.4155305720      -17.9541324159        4.9259036648  W2        11914           0.0000000000
     34714     11572  TIP3      OH2            12.9011994280       -3.4540424159        7.5614136648  W2        11915           0.0000000000
     34715     11572  TIP3      H1             13.5534894280       -3.8018324159        6.9533236648  W2        11915           0.0000000000
     34716     11572  TIP3      H2             13.4115794280       -2.9657224159        8.2073836648  W2        11915           0.0000000000
     34717     11573  TIP3      OH2            -1.9059805720      -19.7003124159       13.9599236648  W2        11916           0.0000000000
     34718     11573  TIP3      H1             -2.5709305720      -19.9462824159       14.6030136648  W2        11916           0.0000000000
     34719     11573  TIP3      H2             -2.3488505720      -19.0782724159       13.3827236648  W2        11916           0.0000000000
     34720     11574  TIP3      OH2             3.2402394280       -5.5507824159       14.3629036648  W2        11918           0.0000000000
     34721     11574  TIP3      H1              2.8153494280       -4.7409324159       14.0803636648  W2        11918           0.0000000000
     34722     11574  TIP3      H2              4.1445194280       -5.4653724159       14.0608836648  W2        11918           0.0000000000
     34723     11575  TIP3      OH2             7.5513794280       -4.1517824159       17.3222736648  W2        11919           0.0000000000
     34724     11575  TIP3      H1              7.7361294280       -4.4851724159       18.2003036648  W2        11919           0.0000000000
     34725     11575  TIP3      H2              8.3978294280       -3.8419224159       17.0001936648  W2        11919           0.0000000000
     34726     11576  TIP3      OH2             9.8964194280       -2.8658924159       16.5664136648  W2        11920           0.0000000000
     34727     11576  TIP3      H1             10.5733094280       -3.4986624159       16.3263336648  W2        11920           0.0000000000
     34728     11576  TIP3      H2             10.2182994280       -2.4648424159       17.3737436648  W2        11920           0.0000000000
     34729     11577  TIP3      OH2            14.8137994280      -20.2763424159       15.6459136648  W2        11921           0.0000000000
     34730     11577  TIP3      H1             14.0011494280      -19.9513124159       15.2583836648  W2        11921           0.0000000000
     34731     11577  TIP3      H2             15.0466494280      -21.0364924159       15.1128236648  W2        11921           0.0000000000
     34732     11578  TIP3      OH2             0.6419094280       -2.2943924159       14.4104336648  W2        11922           0.0000000000
     34733     11578  TIP3      H1             -0.0784505720       -1.8542924159       13.9592036648  W2        11922           0.0000000000
     34734     11578  TIP3      H2              0.2763094280       -2.5449224159       15.2588336648  W2        11922           0.0000000000
     34735     11579  TIP3      OH2             3.1091694280       -2.6940024159       13.4401536648  W2        11923           0.0000000000
     34736     11579  TIP3      H1              2.2443894280       -2.6221524159       13.8441636648  W2        11923           0.0000000000
     34737     11579  TIP3      H2              3.0540694280       -2.1472724159       12.6564036648  W2        11923           0.0000000000
     34738     11580  TIP3      OH2             7.8197294280       -2.8061124159       12.6157536648  W2        11924           0.0000000000
     34739     11580  TIP3      H1              7.3631294280       -2.2771424159       11.9615936648  W2        11924           0.0000000000
     34740     11580  TIP3      H2              7.9825294280       -2.2029724159       13.3409836648  W2        11924           0.0000000000
     34741     11581  TIP3      OH2            10.1473594280       -3.9281524159       13.5607836648  W2        11925           0.0000000000
     34742     11581  TIP3      H1              9.2427294280       -3.7631324159       13.2949936648  W2        11925           0.0000000000
     34743     11581  TIP3      H2             10.5762194280       -3.0749324159       13.4951236648  W2        11925           0.0000000000
     34744     11582  TIP3      OH2            12.7515494280       -2.3582424159       13.8555636648  W2        11926           0.0000000000
     34745     11582  TIP3      H1             12.5697494280       -1.4423524159       13.6450536648  W2        11926           0.0000000000
     34746     11582  TIP3      H2             12.9283294280       -2.7685324159       13.0090236648  W2        11926           0.0000000000
     34747     11583  TIP3      OH2             0.0567194280       -3.6711424159       11.3206136648  W2        11927           0.0000000000
     34748     11583  TIP3      H1              0.0383194280       -4.0966324159       12.1778436648  W2        11927           0.0000000000
     34749     11583  TIP3      H2              0.8615094280       -3.9896424159       10.9118336648  W2        11927           0.0000000000
     34750     11584  TIP3      OH2             2.1980294280       -4.9612724159        9.9756036648  W2        11928           0.0000000000
     34751     11584  TIP3      H1              1.9790994280       -5.8775324159       10.1452036648  W2        11928           0.0000000000
     34752     11584  TIP3      H2              3.0222494280       -4.8212324159       10.4417436648  W2        11928           0.0000000000
     34753     11585  TIP3      OH2             4.7352794280       -4.4913424159       10.8244036648  W2        11929           0.0000000000
     34754     11585  TIP3      H1              4.9478494280       -5.3794424159       10.5374936648  W2        11929           0.0000000000
     34755     11585  TIP3      H2              4.7997894280       -4.5255724159       11.7788036648  W2        11929           0.0000000000
     34756     11586  TIP3      OH2             8.2436494280      -18.8272824159        9.9687336648  W2        11930           0.0000000000
     34757     11586  TIP3      H1              7.5693294280      -19.4567224159       10.2243136648  W2        11930           0.0000000000
     34758     11586  TIP3      H2              8.8075694280      -19.3113924159        9.3655236648  W2        11930           0.0000000000
     34759     11587  TIP3      OH2            13.3863694280      -20.7198824159       10.0814436648  W2        11931           0.0000000000
     34760     11587  TIP3      H1             13.9901294280      -20.1723424159        9.5795436648  W2        11931           0.0000000000
     34761     11587  TIP3      H2             12.5165694280      -20.4008424159        9.8408536648  W2        11931           0.0000000000
     34762     11588  TIP3      OH2            15.1134094280      -19.5810124159        8.4145336648  W2        11932           0.0000000000
     34763     11588  TIP3      H1             15.7251594280      -20.0954424159        7.8878936648  W2        11932           0.0000000000
     34764     11588  TIP3      H2             15.4957494280      -18.7038024159        8.4379736648  W2        11932           0.0000000000
     34765     11589  TIP3      OH2             0.5703994280      -20.1932524159        7.7907236648  W2        11933           0.0000000000
     34766     11589  TIP3      H1             -0.2066205720      -20.4277624159        7.2833136648  W2        11933           0.0000000000
     34767     11589  TIP3      H2              1.1007594280      -20.9900424159        7.7995236648  W2        11933           0.0000000000
     34768     11590  TIP3      OH2            -0.5932605720      -20.3954424159        3.5943336648  W2        11934           0.0000000000
     34769     11590  TIP3      H1             -0.1541905720      -19.7843924159        3.0026836648  W2        11934           0.0000000000
     34770     11590  TIP3      H2             -1.2270205720      -19.8570324159        4.0683336648  W2        11934           0.0000000000
     34771     11591  TIP3      OH2             5.1496594280      -20.2665424159        7.6040336648  W2        11935           0.0000000000
     34772     11591  TIP3      H1              6.0239994280      -19.8781124159        7.5744636648  W2        11935           0.0000000000
     34773     11591  TIP3      H2              5.0137394280      -20.4817624159        8.5267536648  W2        11935           0.0000000000
     34774     11592  TIP3      OH2            10.7064994280      -20.2365624159        9.2532036648  W2        11936           0.0000000000
     34775     11592  TIP3      H1             10.7826594280      -20.1414024159        8.3038036648  W2        11936           0.0000000000
     34776     11592  TIP3      H2             10.4314194280      -21.1442724159        9.3821136648  W2        11936           0.0000000000
     34777     11593  TIP3      OH2            12.0597594280      -20.2107824159        4.9457036648  W2        11937           0.0000000000
     34778     11593  TIP3      H1             11.3568694280      -19.5958624159        4.7358436648  W2        11937           0.0000000000
     34779     11593  TIP3      H2             11.6148994280      -21.0481124159        5.0767936648  W2        11937           0.0000000000
     34780     11594  TIP3      OH2            -0.6923105720       -4.4472224159        4.4918436648  W2        11938           0.0000000000
     34781     11594  TIP3      H1             -1.3773205720       -4.4853324159        3.8243536648  W2        11938           0.0000000000
     34782     11594  TIP3      H2             -0.6885905720       -3.5344624159        4.7800536648  W2        11938           0.0000000000
     34783     11595  TIP3      OH2             1.2676494280      -18.4792924159        2.0367436648  W2        11939           0.0000000000
     34784     11595  TIP3      H1              1.7589894280      -19.1090524159        1.5092936648  W2        11939           0.0000000000
     34785     11595  TIP3      H2              1.8912794280      -18.1833524159        2.6998636648  W2        11939           0.0000000000
     34786     11596  TIP3      OH2             6.2936594280      -18.1861424159        4.4937936648  W2        11940           0.0000000000
     34787     11596  TIP3      H1              6.4717894280      -18.8328224159        5.1766536648  W2        11940           0.0000000000
     34788     11596  TIP3      H2              6.2402794280      -17.3523724159        4.9609036648  W2        11940           0.0000000000
     34789     11597  TIP3      OH2             8.1720394280       -3.2377324159        2.8894636648  W2        11941           0.0000000000
     34790     11597  TIP3      H1              9.0380594280       -2.8709924159        2.7112836648  W2        11941           0.0000000000
     34791     11597  TIP3      H2              7.9253194280       -3.6769324159        2.0755436648  W2        11941           0.0000000000
     34792     11598  TIP3      OH2            14.8809994280       -3.6747024159        5.5685736648  W2        11942           0.0000000000
     34793     11598  TIP3      H1             14.6867094280       -4.4224924159        5.0035336648  W2        11942           0.0000000000
     34794     11598  TIP3      H2             14.8420094280       -2.9166924159        4.9853636648  W2        11942           0.0000000000
     34795     11599  TIP3      OH2             0.5281994280      -19.6790624159       17.3083436648  W2        11943           0.0000000000
     34796     11599  TIP3      H1              0.1620194280      -20.4448024159       17.7508136648  W2        11943           0.0000000000
     34797     11599  TIP3      H2              1.4410494280      -19.6500424159       17.5948536648  W2        11943           0.0000000000
     34798     11600  TIP3      OH2             1.1258094280       -3.5271424159        1.5170536648  W2        11945           0.0000000000
     34799     11600  TIP3      H1              0.8582694280       -3.2408524159        2.3903636648  W2        11945           0.0000000000
     34800     11600  TIP3      H2              1.8970694280       -4.0732224159        1.6693036648  W2        11945           0.0000000000
     34801     11601  TIP3      OH2            14.0986194280       -4.9234624159       17.7187536648  W2        11947           0.0000000000
     34802     11601  TIP3      H1             13.3168094280       -5.1096624159       17.1988136648  W2        11947           0.0000000000
     34803     11601  TIP3      H2             14.0266094280       -3.9940324159       17.9360036648  W2        11947           0.0000000000
     34804     11602  TIP3      OH2            28.5046594280      -11.0370224159        7.7494736648  W2        11948           0.0000000000
     34805     11602  TIP3      H1             28.5937694280      -10.0932024159        7.6171836648  W2        11948           0.0000000000
     34806     11602  TIP3      H2             27.8664194280      -11.3123824159        7.0914136648  W2        11948           0.0000000000
     34807     11603  TIP3      OH2            27.4377894280      -11.7819524159       11.1682936648  W2        11949           0.0000000000
     34808     11603  TIP3      H1             27.3995394280      -12.4283224159       11.8732536648  W2        11949           0.0000000000
     34809     11603  TIP3      H2             27.1154394280      -12.2485124159       10.3971636648  W2        11949           0.0000000000
     34810     11604  TIP3      OH2            19.8062894280      -12.1677424159       12.7612836648  W2        11950           0.0000000000
     34811     11604  TIP3      H1             19.8474994280      -12.7934124159       13.4845236648  W2        11950           0.0000000000
     34812     11604  TIP3      H2             20.5090594280      -11.5438824159       12.9433236648  W2        11950           0.0000000000
     34813     11605  TIP3      OH2            31.1438094280       -8.8429124159        9.4698036648  W2        11951           0.0000000000
     34814     11605  TIP3      H1             30.7030794280       -9.5633124159        9.9203636648  W2        11951           0.0000000000
     34815     11605  TIP3      H2             31.1307794280       -8.1221924159       10.0995736648  W2        11951           0.0000000000
     34816     11606  TIP3      OH2            20.7295994280       -7.7178524159       11.2961936648  W2        11952           0.0000000000
     34817     11606  TIP3      H1             20.3601194280       -8.5198024159       10.9266236648  W2        11952           0.0000000000
     34818     11606  TIP3      H2             21.6707094280       -7.8863624159       11.3425336648  W2        11952           0.0000000000
     34819     11607  TIP3      OH2            17.3396494280      -14.0575924159        6.6890736648  W2        11953           0.0000000000
     34820     11607  TIP3      H1             16.8919894280      -13.2117224159        6.6707236648  W2        11953           0.0000000000
     34821     11607  TIP3      H2             16.7787694280      -14.6371724159        6.1735836648  W2        11953           0.0000000000
     34822     11608  TIP3      OH2            18.0502594280      -11.8956324159        8.8148736648  W2        11954           0.0000000000
     34823     11608  TIP3      H1             18.2636094280      -12.6654724159        9.3421736648  W2        11954           0.0000000000
     34824     11608  TIP3      H2             18.7880194280      -11.8059624159        8.2116336648  W2        11954           0.0000000000
     34825     11609  TIP3      OH2            28.2553594280       -3.7387424159        9.6818436648  W2        11955           0.0000000000
     34826     11609  TIP3      H1             28.8749994280       -4.4152724159        9.4087636648  W2        11955           0.0000000000
     34827     11609  TIP3      H2             28.0470994280       -3.9566624159       10.5903336648  W2        11955           0.0000000000
     34828     11610  TIP3      OH2            25.8272294280       -9.3498124159       11.5743936648  W2        11956           0.0000000000
     34829     11610  TIP3      H1             26.1310194280      -10.0356724159       10.9798036648  W2        11956           0.0000000000
     34830     11610  TIP3      H2             26.5486294280       -9.2309424159       12.1921936648  W2        11956           0.0000000000
     34831     11611  TIP3      OH2            34.4902094280      -17.7482824159       12.4350136648  W2        11957           0.0000000000
     34832     11611  TIP3      H1             34.5394294280      -17.1381624159       13.1709236648  W2        11957           0.0000000000
     34833     11611  TIP3      H2             34.9157194280      -17.2871924159       11.7121236648  W2        11957           0.0000000000
     34834     11612  TIP3      OH2            28.9679294280      -14.9555724159       11.9018736648  W2        11958           0.0000000000
     34835     11612  TIP3      H1             29.1105194280      -15.9018724159       11.9220336648  W2        11958           0.0000000000
     34836     11612  TIP3      H2             28.8618294280      -14.7485924159       10.9733636648  W2        11958           0.0000000000
     34837     11613  TIP3      OH2            22.1227594280      -16.8539324159        9.1743536648  W2        11959           0.0000000000
     34838     11613  TIP3      H1             22.1658694280      -15.9940824159        8.7559836648  W2        11959           0.0000000000
     34839     11613  TIP3      H2             21.6651694280      -17.4064624159        8.5406736648  W2        11959           0.0000000000
     34840     11614  TIP3      OH2            29.8450294280      -16.7233724159        7.5751836648  W2        11960           0.0000000000
     34841     11614  TIP3      H1             30.4914594280      -17.0520524159        8.1999436648  W2        11960           0.0000000000
     34842     11614  TIP3      H2             30.3549694280      -16.2054724159        6.9523236648  W2        11960           0.0000000000
     34843     11615  TIP3      OH2            18.7429094280      -14.4573524159        9.9364936648  W2        11961           0.0000000000
     34844     11615  TIP3      H1             19.3965694280      -15.0071824159       10.3685036648  W2        11961           0.0000000000
     34845     11615  TIP3      H2             18.7668394280      -14.7314524159        9.0196936648  W2        11961           0.0000000000
     34846     11616  TIP3      OH2            23.8993594280      -12.9072224159        9.1516436648  W2        11962           0.0000000000
     34847     11616  TIP3      H1             24.5154594280      -13.4336824159        9.6610436648  W2        11962           0.0000000000
     34848     11616  TIP3      H2             23.3132394280      -13.5473524159        8.7480036648  W2        11962           0.0000000000
     34849     11617  TIP3      OH2            34.8816694280      -16.2703624159       14.6709936648  W2        11963           0.0000000000
     34850     11617  TIP3      H1             34.1931294280      -15.6122924159       14.5756536648  W2        11963           0.0000000000
     34851     11617  TIP3      H2             34.8971294280      -16.4675724159       15.6075336648  W2        11963           0.0000000000
     34852     11618  TIP3      OH2            20.9329494280      -17.9360924159       13.2484336648  W2        11964           0.0000000000
     34853     11618  TIP3      H1             20.7141194280      -17.4060324159       12.4820336648  W2        11964           0.0000000000
     34854     11618  TIP3      H2             20.2650394280      -17.7095424159       13.8955736648  W2        11964           0.0000000000
     34855     11619  TIP3      OH2            28.3019294280       -8.4359824159        6.7923436648  W2        11965           0.0000000000
     34856     11619  TIP3      H1             28.0064394280       -8.7587524159        5.9410336648  W2        11965           0.0000000000
     34857     11619  TIP3      H2             27.9777094280       -7.5363124159        6.8336036648  W2        11965           0.0000000000
     34858     11620  TIP3      OH2            23.5020894280      -10.2605224159       13.5358036648  W2        11966           0.0000000000
     34859     11620  TIP3      H1             22.7619994280       -9.6623724159       13.6393236648  W2        11966           0.0000000000
     34860     11620  TIP3      H2             24.2160394280       -9.7065624159       13.2201636648  W2        11966           0.0000000000
     34861     11621  TIP3      OH2            31.6088694280      -17.4324424159        9.5557736648  W2        11967           0.0000000000
     34862     11621  TIP3      H1             31.3936694280      -18.1981024159       10.0883736648  W2        11967           0.0000000000
     34863     11621  TIP3      H2             32.2646094280      -16.9599824159       10.0686236648  W2        11967           0.0000000000
     34864     11622  TIP3      OH2            20.5266794280      -16.0439124159       11.2006536648  W2        11968           0.0000000000
     34865     11622  TIP3      H1             21.1403094280      -15.4111524159       11.5738936648  W2        11968           0.0000000000
     34866     11622  TIP3      H2             21.0387494280      -16.5164124159       10.5443436648  W2        11968           0.0000000000
     34867     11623  TIP3      OH2            21.9095194280       -8.2962224159       14.3229536648  W2        11969           0.0000000000
     34868     11623  TIP3      H1             21.9042794280       -7.4168724159       13.9448836648  W2        11969           0.0000000000
     34869     11623  TIP3      H2             21.0559294280       -8.3798124159       14.7479436648  W2        11969           0.0000000000
     34870     11624  TIP3      OH2            18.0306094280       -8.6254324159        5.1048836648  W2        11970           0.0000000000
     34871     11624  TIP3      H1             17.7586994280       -8.3963324159        4.2161736648  W2        11970           0.0000000000
     34872     11624  TIP3      H2             18.0761794280       -7.7875524159        5.5654136648  W2        11970           0.0000000000
     34873     11625  TIP3      OH2            31.6555794280       -7.0038424159       11.8177336648  W2        11971           0.0000000000
     34874     11625  TIP3      H1             30.7139494280       -6.9454524159       11.9794236648  W2        11971           0.0000000000
     34875     11625  TIP3      H2             31.9321894280       -6.0977924159       11.6807036648  W2        11971           0.0000000000
     34876     11626  TIP3      OH2            31.9562794280      -18.7173124159       13.2351236648  W2        11972           0.0000000000
     34877     11626  TIP3      H1             31.2201994280      -18.1066024159       13.1972536648  W2        11972           0.0000000000
     34878     11626  TIP3      H2             32.6396794280      -18.3024124159       12.7087636648  W2        11972           0.0000000000
     34879     11627  TIP3      OH2            24.9594194280      -20.6305824159       10.7009236648  W2        11973           0.0000000000
     34880     11627  TIP3      H1             24.8418394280      -21.5789824159       10.6467536648  W2        11973           0.0000000000
     34881     11627  TIP3      H2             24.1044294280      -20.2979724159       10.9740336648  W2        11973           0.0000000000
     34882     11628  TIP3      OH2            29.9076994280       -5.2224924159        8.4428936648  W2        11974           0.0000000000
     34883     11628  TIP3      H1             30.3329294280       -5.9297024159        7.9578536648  W2        11974           0.0000000000
     34884     11628  TIP3      H2             30.2246994280       -4.4212224159        8.0261136648  W2        11974           0.0000000000
     34885     11629  TIP3      OH2            31.0673494280       -7.3216424159        6.9515536648  W2        11975           0.0000000000
     34886     11629  TIP3      H1             30.8098294280       -8.0116324159        6.3401436648  W2        11975           0.0000000000
     34887     11629  TIP3      H2             31.1384294280       -7.7645224159        7.7971436648  W2        11975           0.0000000000
     34888     11630  TIP3      OH2            32.7533694280       -8.7549724159       15.4289036648  W2        11976           0.0000000000
     34889     11630  TIP3      H1             32.8929994280       -9.3467224159       14.6896036648  W2        11976           0.0000000000
     34890     11630  TIP3      H2             32.9206494280       -7.8823824159       15.0727836648  W2        11976           0.0000000000
     34891     11631  TIP3      OH2            27.2259094280      -11.7930224159        5.2015036648  W2        11977           0.0000000000
     34892     11631  TIP3      H1             26.5144594280      -11.2580524159        4.8495536648  W2        11977           0.0000000000
     34893     11631  TIP3      H2             27.9168694280      -11.7378124159        4.5413936648  W2        11977           0.0000000000
     34894     11632  TIP3      OH2            27.2798294280      -13.3355924159        2.2400036648  W2        11978           0.0000000000
     34895     11632  TIP3      H1             27.9808194280      -13.3129024159        2.8914036648  W2        11978           0.0000000000
     34896     11632  TIP3      H2             27.5821194280      -13.9636224159        1.5839336648  W2        11978           0.0000000000
     34897     11633  TIP3      OH2            34.5952994280      -12.4151724159       13.4949436648  W2        11979           0.0000000000
     34898     11633  TIP3      H1             33.9427094280      -11.7206124159       13.5840336648  W2        11979           0.0000000000
     34899     11633  TIP3      H2             35.0603294280      -12.2050824159       12.6851036648  W2        11979           0.0000000000
     34900     11634  TIP3      OH2            30.6316794280      -11.5836924159        6.1530936648  W2        11980           0.0000000000
     34901     11634  TIP3      H1             29.8997794280      -11.3553224159        6.7261536648  W2        11980           0.0000000000
     34902     11634  TIP3      H2             31.0788994280      -12.2974224159        6.6078436648  W2        11980           0.0000000000
     34903     11635  TIP3      OH2            30.5290294280      -13.4094324159       15.2207936648  W2        11981           0.0000000000
     34904     11635  TIP3      H1             30.6089394280      -12.6459924159       15.7926436648  W2        11981           0.0000000000
     34905     11635  TIP3      H2             29.9277994280      -13.1301924159       14.5303036648  W2        11981           0.0000000000
     34906     11636  TIP3      OH2            22.2770494280      -10.9530724159        8.0355936648  W2        11982           0.0000000000
     34907     11636  TIP3      H1             21.9465694280      -11.3237324159        7.2172936648  W2        11982           0.0000000000
     34908     11636  TIP3      H2             22.8654594280      -11.6236724159        8.3824236648  W2        11982           0.0000000000
     34909     11637  TIP3      OH2            23.6437994280       -7.5250124159       10.7168136648  W2        11983           0.0000000000
     34910     11637  TIP3      H1             23.5489294280       -8.1037024159        9.9602736648  W2        11983           0.0000000000
     34911     11637  TIP3      H2             24.3731594280       -7.8964424159       11.2130936648  W2        11983           0.0000000000
     34912     11638  TIP3      OH2            22.6435994280      -12.1845124159       11.6690936648  W2        11984           0.0000000000
     34913     11638  TIP3      H1             23.2088494280      -12.0630924159       10.9062136648  W2        11984           0.0000000000
     34914     11638  TIP3      H2             22.9624894280      -11.5470124159       12.3079436648  W2        11984           0.0000000000
     34915     11639  TIP3      OH2            28.9528194280       -6.6813224159       12.4031436648  W2        11985           0.0000000000
     34916     11639  TIP3      H1             28.7124794280       -6.0190124159       13.0510636648  W2        11985           0.0000000000
     34917     11639  TIP3      H2             28.7546394280       -7.5158024159       12.8281036648  W2        11985           0.0000000000
     34918     11640  TIP3      OH2            23.5236694280       -7.7852424159       16.3862836648  W2        11986           0.0000000000
     34919     11640  TIP3      H1             23.2124194280       -7.0029224159       16.8416036648  W2        11986           0.0000000000
     34920     11640  TIP3      H2             22.8736894280       -7.9383324159       15.7004836648  W2        11986           0.0000000000
     34921     11641  TIP3      OH2            29.5026294280      -12.4214024159        3.8382136648  W2        11987           0.0000000000
     34922     11641  TIP3      H1             30.0821794280      -12.2713724159        4.5851036648  W2        11987           0.0000000000
     34923     11641  TIP3      H2             29.9166294280      -11.9506624159        3.1148536648  W2        11987           0.0000000000
     34924     11642  TIP3      OH2            20.4436594280      -11.5871324159       15.6148536648  W2        11988           0.0000000000
     34925     11642  TIP3      H1             20.5139794280      -10.9364524159       16.3133536648  W2        11988           0.0000000000
     34926     11642  TIP3      H2             19.5528794280      -11.4843824159       15.2799436648  W2        11988           0.0000000000
     34927     11643  TIP3      OH2            27.2291194280       -5.6845524159        7.2735236648  W2        11989           0.0000000000
     34928     11643  TIP3      H1             27.7028794280       -5.3889224159        8.0509436648  W2        11989           0.0000000000
     34929     11643  TIP3      H2             26.6660494280       -4.9463924159        7.0404836648  W2        11989           0.0000000000
     34930     11644  TIP3      OH2            21.7632594280       -5.7137424159       17.1496636648  W2        11990           0.0000000000
     34931     11644  TIP3      H1             21.7707894280       -5.8497724159       16.2022136648  W2        11990           0.0000000000
     34932     11644  TIP3      H2             20.8472994280       -5.8309324159       17.4016636648  W2        11990           0.0000000000
     34933     11645  TIP3      OH2            33.2014694280      -20.6713624159        3.6511836648  W2        11991           0.0000000000
     34934     11645  TIP3      H1             32.3015394280      -20.5324624159        3.9462436648  W2        11991           0.0000000000
     34935     11645  TIP3      H2             33.4533094280      -19.8399024159        3.2493536648  W2        11991           0.0000000000
     34936     11646  TIP3      OH2            21.2673194280      -11.8836424159        5.6248736648  W2        11992           0.0000000000
     34937     11646  TIP3      H1             20.9754494280      -11.1154724159        5.1340036648  W2        11992           0.0000000000
     34938     11646  TIP3      H2             20.5928394280      -12.5430224159        5.4620136648  W2        11992           0.0000000000
     34939     11647  TIP3      OH2            34.3906094280       -6.3051224159        2.0275736648  W2        11993           0.0000000000
     34940     11647  TIP3      H1             34.4639594280       -5.3661024159        2.1981036648  W2        11993           0.0000000000
     34941     11647  TIP3      H2             35.2961194280       -6.6102624159        1.9713036648  W2        11993           0.0000000000
     34942     11648  TIP3      OH2            17.3603294280       -9.5207224159       14.4398536648  W2        11994           0.0000000000
     34943     11648  TIP3      H1             16.8591694280       -9.5487824159       13.6248236648  W2        11994           0.0000000000
     34944     11648  TIP3      H2             17.3656994280      -10.4264024159       14.7495836648  W2        11994           0.0000000000
     34945     11649  TIP3      OH2            17.1105994280       -6.7403424159       11.3238736648  W2        11995           0.0000000000
     34946     11649  TIP3      H1             18.0566594280       -6.8846424159       11.3048236648  W2        11995           0.0000000000
     34947     11649  TIP3      H2             16.9982294280       -5.9560624159       11.8609936648  W2        11995           0.0000000000
     34948     11650  TIP3      OH2            35.3084494280       -6.0743724159       17.0062436648  W2        11996           0.0000000000
     34949     11650  TIP3      H1             35.2591294280       -7.0295624159       16.9690036648  W2        11996           0.0000000000
     34950     11650  TIP3      H2             34.4816794280       -5.8068424159       17.4076236648  W2        11996           0.0000000000
     34951     11651  TIP3      OH2            26.2868494280       -6.5004524159       15.8823836648  W2        11997           0.0000000000
     34952     11651  TIP3      H1             26.3743094280       -5.6739924159       16.3572936648  W2        11997           0.0000000000
     34953     11651  TIP3      H2             25.4233594280       -6.8300724159       16.1313136648  W2        11997           0.0000000000
     34954     11652  TIP3      OH2            26.7014294280       -2.7280824159        5.6884436648  W2        11998           0.0000000000
     34955     11652  TIP3      H1             26.6260294280       -2.8493624159        4.7419636648  W2        11998           0.0000000000
     34956     11652  TIP3      H2             26.7342994280       -1.7788124159        5.8069036648  W2        11998           0.0000000000
     34957     11653  TIP3      OH2            20.3548094280       -3.9393824159        7.4693436648  W2        11999           0.0000000000
     34958     11653  TIP3      H1             20.5068494280       -4.2873424159        8.3479936648  W2        11999           0.0000000000
     34959     11653  TIP3      H2             19.5038494280       -4.2956524159        7.2140636648  W2        11999           0.0000000000
     34960     11654  TIP3      OH2            29.8030294280       -3.5740624159        2.6906836648  W2        12000           0.0000000000
     34961     11654  TIP3      H1             30.1778694280       -4.3184524159        2.2199436648  W2        12000           0.0000000000
     34962     11654  TIP3      H2             29.8073994280       -3.8440024159        3.6090136648  W2        12000           0.0000000000
     34963     11655  TIP3      OH2            29.4718394280       -3.6483524159        5.4399036648  W2        12001           0.0000000000
     34964     11655  TIP3      H1             28.5368194280       -3.5481624159        5.6186036648  W2        12001           0.0000000000
     34965     11655  TIP3      H2             29.7520294280       -4.3577524159        6.0182236648  W2        12001           0.0000000000
     34966     11656  TIP3      OH2            32.4604294280      -14.5811224159       17.4864636648  W2        12002           0.0000000000
     34967     11656  TIP3      H1             32.0531094280      -14.1005624159       16.7657936648  W2        12002           0.0000000000
     34968     11656  TIP3      H2             32.5009994280      -15.4865224159       17.1785436648  W2        12002           0.0000000000
     34969     11657  TIP3      OH2            19.6093794280       -8.1971824159       15.4831336648  W2        12003           0.0000000000
     34970     11657  TIP3      H1             19.8255094280       -8.5586224159       16.3427136648  W2        12003           0.0000000000
     34971     11657  TIP3      H2             18.7538494280       -8.5718024159       15.2734836648  W2        12003           0.0000000000
     34972     11658  TIP3      OH2            22.2281794280      -19.7271324159       11.4785536648  W2        12004           0.0000000000
     34973     11658  TIP3      H1             21.3665494280      -19.8143124159       11.0708436648  W2        12004           0.0000000000
     34974     11658  TIP3      H2             22.2057494280      -18.8711224159       11.9063136648  W2        12004           0.0000000000
     34975     11659  TIP3      OH2            26.8909594280      -20.0050924159       14.8532536648  W2        12005           0.0000000000
     34976     11659  TIP3      H1             27.3112694280      -20.4203824159       15.6063136648  W2        12005           0.0000000000
     34977     11659  TIP3      H2             25.9579194280      -20.1837624159       14.9704536648  W2        12005           0.0000000000
     34978     11660  TIP3      OH2            30.2174494280      -16.2495724159       15.7067036648  W2        12006           0.0000000000
     34979     11660  TIP3      H1             29.7033994280      -16.3753524159       16.5043036648  W2        12006           0.0000000000
     34980     11660  TIP3      H2             30.0619194280      -15.3372624159       15.4623236648  W2        12006           0.0000000000
     34981     11661  TIP3      OH2            30.9799394280      -11.3885724159        1.4680036648  W2        12007           0.0000000000
     34982     11661  TIP3      H1             31.0220194280      -11.6111824159        0.5380036648  W2        12007           0.0000000000
     34983     11661  TIP3      H2             31.8291494280      -10.9898624159        1.6579936648  W2        12007           0.0000000000
     34984     11662  TIP3      OH2            26.5526894280      -17.5127524159        2.1383336648  W2        12008           0.0000000000
     34985     11662  TIP3      H1             26.2991694280      -17.4935924159        3.0611436648  W2        12008           0.0000000000
     34986     11662  TIP3      H2             26.2958994280      -18.3842124159        1.8369536648  W2        12008           0.0000000000
     34987     11663  TIP3      OH2            22.3191894280      -14.7616824159       12.5735736648  W2        12009           0.0000000000
     34988     11663  TIP3      H1             21.6773994280      -14.8019524159       13.2825836648  W2        12009           0.0000000000
     34989     11663  TIP3      H2             22.3563894280      -13.8352124159       12.3358736648  W2        12009           0.0000000000
     34990     11664  TIP3      OH2            22.3160994280      -14.5406724159        7.4855736648  W2        12010           0.0000000000
     34991     11664  TIP3      H1             21.4233894280      -14.8810624159        7.4269536648  W2        12010           0.0000000000
     34992     11664  TIP3      H2             22.7667594280      -14.9175824159        6.7298936648  W2        12010           0.0000000000
     34993     11665  TIP3      OH2            27.8516494280      -14.1246424159        6.3026536648  W2        12011           0.0000000000
     34994     11665  TIP3      H1             27.4426794280      -13.3097824159        6.0111336648  W2        12011           0.0000000000
     34995     11665  TIP3      H2             28.5722694280      -14.2646324159        5.6883636648  W2        12011           0.0000000000
     34996     11666  TIP3      OH2            26.9538094280      -13.9490024159       17.7907236648  W2        12012           0.0000000000
     34997     11666  TIP3      H1             26.3911894280      -14.6538424159       18.1115036648  W2        12012           0.0000000000
     34998     11666  TIP3      H2             27.7801494280      -14.0698124159       18.2584836648  W2        12012           0.0000000000
     34999     11667  TIP3      OH2            28.8564194280      -14.6786024159        9.1166236648  W2        12013           0.0000000000
     35000     11667  TIP3      H1             28.6608694280      -14.0729224159        8.4016836648  W2        12013           0.0000000000
     35001     11667  TIP3      H2             29.0376794280      -15.5120824159        8.6822536648  W2        12013           0.0000000000
     35002     11668  TIP3      OH2            20.0692394280      -14.4413324159       14.4407736648  W2        12014           0.0000000000
     35003     11668  TIP3      H1             20.0311794280      -14.0411724159       15.3094836648  W2        12014           0.0000000000
     35004     11668  TIP3      H2             19.5783494280      -15.2580924159       14.5310636648  W2        12014           0.0000000000
     35005     11669  TIP3      OH2            23.4349794280      -17.0671024159        1.2393736648  W2        12015           0.0000000000
     35006     11669  TIP3      H1             23.0040494280      -17.5120924159        1.9691136648  W2        12015           0.0000000000
     35007     11669  TIP3      H2             22.7168494280      -16.6954724159        0.7271236648  W2        12015           0.0000000000
     35008     11670  TIP3      OH2            16.6773194280      -17.3251524159        8.2912436648  W2        12016           0.0000000000
     35009     11670  TIP3      H1             17.3080894280      -17.3539424159        9.0106336648  W2        12016           0.0000000000
     35010     11670  TIP3      H2             17.1267494280      -17.7502824159        7.5608336648  W2        12016           0.0000000000
     35011     11671  TIP3      OH2            17.9515294280      -16.5789524159        3.7152836648  W2        12017           0.0000000000
     35012     11671  TIP3      H1             18.4256994280      -15.9879624159        3.1303736648  W2        12017           0.0000000000
     35013     11671  TIP3      H2             17.2341694280      -16.0486624159        4.0622936648  W2        12017           0.0000000000
     35014     11672  TIP3      OH2            28.1203394280      -13.0404724159       13.7878636648  W2        12018           0.0000000000
     35015     11672  TIP3      H1             28.4438194280      -13.6715024159       13.1449136648  W2        12018           0.0000000000
     35016     11672  TIP3      H2             27.6802694280      -13.5752524159       14.4486036648  W2        12018           0.0000000000
     35017     11673  TIP3      OH2            24.8976294280      -17.1129224159        8.5719836648  W2        12019           0.0000000000
     35018     11673  TIP3      H1             23.9867394280      -17.0562424159        8.8605836648  W2        12019           0.0000000000
     35019     11673  TIP3      H2             25.4029194280      -17.1733724159        9.3827036648  W2        12019           0.0000000000
     35020     11674  TIP3      OH2            19.7259694280      -15.4842924159        7.3987436648  W2        12020           0.0000000000
     35021     11674  TIP3      H1             18.8367694280      -15.3847424159        7.0587036648  W2        12020           0.0000000000
     35022     11674  TIP3      H2             20.0224594280      -16.3259924159        7.0525336648  W2        12020           0.0000000000
     35023     11675  TIP3      OH2            23.3791494280      -15.4840324159        5.0552036648  W2        12021           0.0000000000
     35024     11675  TIP3      H1             24.3106994280      -15.3550324159        5.2335136648  W2        12021           0.0000000000
     35025     11675  TIP3      H2             23.1641794280      -14.8146024159        4.4056736648  W2        12021           0.0000000000
     35026     11676  TIP3      OH2            29.3028194280      -17.8782924159       11.8361636648  W2        12022           0.0000000000
     35027     11676  TIP3      H1             28.6259794280      -17.7469824159       12.5001336648  W2        12022           0.0000000000
     35028     11676  TIP3      H2             28.8173094280      -18.0333424159       11.0259336648  W2        12022           0.0000000000
     35029     11677  TIP3      OH2            22.0531694280      -14.2898124159        2.6218136648  W2        12023           0.0000000000
     35030     11677  TIP3      H1             21.5106794280      -14.6694324159        1.9305736648  W2        12023           0.0000000000
     35031     11677  TIP3      H2             22.8866594280      -14.0953424159        2.1932236648  W2        12023           0.0000000000
     35032     11678  TIP3      OH2            20.1883094280       -9.7326224159       17.7209736648  W2        12025           0.0000000000
     35033     11678  TIP3      H1             20.9205494280       -9.4780324159       18.2824236648  W2        12025           0.0000000000
     35034     11678  TIP3      H2             19.4081794280       -9.5280824159       18.2365136648  W2        12025           0.0000000000
     35035     11679  TIP3      OH2            26.2175994280      -14.3256224159       10.4589436648  W2        12026           0.0000000000
     35036     11679  TIP3      H1             26.7819394280      -14.8719624159        9.9119036648  W2        12026           0.0000000000
     35037     11679  TIP3      H2             26.0699394280      -14.8474324159       11.2477036648  W2        12026           0.0000000000
     35038     11680  TIP3      OH2            21.2195694280      -18.1890124159        6.8774236648  W2        12027           0.0000000000
     35039     11680  TIP3      H1             20.9025194280      -19.0914824159        6.8419636648  W2        12027           0.0000000000
     35040     11680  TIP3      H2             22.0009794280      -18.1872724159        6.3245836648  W2        12027           0.0000000000
     35041     11681  TIP3      OH2            24.8441894280      -15.9370124159       12.8729836648  W2        12028           0.0000000000
     35042     11681  TIP3      H1             24.0087194280      -15.4830624159       12.9832236648  W2        12028           0.0000000000
     35043     11681  TIP3      H2             25.3682494280      -15.6611624159       13.6249736648  W2        12028           0.0000000000
     35044     11682  TIP3      OH2            25.3884494280       -9.7242424159        4.5576236648  W2        12029           0.0000000000
     35045     11682  TIP3      H1             24.6435494280      -10.2317124159        4.2354136648  W2        12029           0.0000000000
     35046     11682  TIP3      H2             25.2541694280       -9.6754424159        5.5041036648  W2        12029           0.0000000000
     35047     11683  TIP3      OH2            32.5383394280      -10.5914224159       13.3443836648  W2        12030           0.0000000000
     35048     11683  TIP3      H1             33.1802194280      -10.1347924159       12.8006036648  W2        12030           0.0000000000
     35049     11683  TIP3      H2             31.7080294280      -10.4781824159       12.8817936648  W2        12030           0.0000000000
     35050     11684  TIP3      OH2            29.2861294280      -16.9102524159        2.7568836648  W2        12031           0.0000000000
     35051     11684  TIP3      H1             28.3475494280      -16.7986924159        2.6057636648  W2        12031           0.0000000000
     35052     11684  TIP3      H2             29.5833394280      -16.0535624159        3.0634536648  W2        12031           0.0000000000
     35053     11685  TIP3      OH2            26.9076594280       -9.5399124159       15.7945336648  W2        12032           0.0000000000
     35054     11685  TIP3      H1             26.5622694280       -9.9216724159       16.6014936648  W2        12032           0.0000000000
     35055     11685  TIP3      H2             26.7076694280       -8.6065524159       15.8658236648  W2        12032           0.0000000000
     35056     11686  TIP3      OH2            30.0044794280      -15.0429824159        4.4176236648  W2        12033           0.0000000000
     35057     11686  TIP3      H1             30.8963794280      -15.1804824159        4.7367436648  W2        12033           0.0000000000
     35058     11686  TIP3      H2             30.0608394280      -14.2523724159        3.8809736648  W2        12033           0.0000000000
     35059     11687  TIP3      OH2            20.5132794280      -10.4292424159       10.3274136648  W2        12034           0.0000000000
     35060     11687  TIP3      H1             21.2579994280      -10.4316724159        9.7260636648  W2        12034           0.0000000000
     35061     11687  TIP3      H2             20.5909394280      -11.2528624159       10.8089236648  W2        12034           0.0000000000
     35062     11688  TIP3      OH2            27.5138594280       -8.2658124159        3.5830836648  W2        12035           0.0000000000
     35063     11688  TIP3      H1             27.2186994280       -7.4390224159        3.9645636648  W2        12035           0.0000000000
     35064     11688  TIP3      H2             26.8108594280       -8.8851224159        3.7792236648  W2        12035           0.0000000000
     35065     11689  TIP3      OH2            17.5212494280      -11.9685524159       15.6422636648  W2        12036           0.0000000000
     35066     11689  TIP3      H1             17.7441094280      -12.3865924159       16.4740136648  W2        12036           0.0000000000
     35067     11689  TIP3      H2             16.9192594280      -12.5810524159       15.2195436648  W2        12036           0.0000000000
     35068     11690  TIP3      OH2            29.1580194280       -7.0783624159       15.7450336648  W2        12038           0.0000000000
     35069     11690  TIP3      H1             28.2574494280       -6.8951024159       15.4774236648  W2        12038           0.0000000000
     35070     11690  TIP3      H2             29.1921294280       -6.8194324159       16.6659136648  W2        12038           0.0000000000
     35071     11691  TIP3      OH2            34.8893494280      -14.8335724159        4.1122936648  W2        12039           0.0000000000
     35072     11691  TIP3      H1             34.3349794280      -15.2297724159        3.4400436648  W2        12039           0.0000000000
     35073     11691  TIP3      H2             34.9897094280      -13.9230524159        3.8346236648  W2        12039           0.0000000000
     35074     11692  TIP3      OH2            34.8525494280       -9.0334024159       16.9494436648  W2        12040           0.0000000000
     35075     11692  TIP3      H1             34.0013994280       -8.7950224159       16.5820836648  W2        12040           0.0000000000
     35076     11692  TIP3      H2             35.4428894280       -9.0500824159       16.1961536648  W2        12040           0.0000000000
     35077     11693  TIP3      OH2            33.1845194280       -6.0475324159        4.5775036648  W2        12041           0.0000000000
     35078     11693  TIP3      H1             32.8116294280       -6.8731524159        4.8865636648  W2        12041           0.0000000000
     35079     11693  TIP3      H2             33.4618694280       -6.2305924159        3.6798436648  W2        12041           0.0000000000
     35080     11694  TIP3      OH2            30.3449094280      -11.2395824159       11.5986936648  W2        12042           0.0000000000
     35081     11694  TIP3      H1             29.4165994280      -11.4713924159       11.5716236648  W2        12042           0.0000000000
     35082     11694  TIP3      H2             30.7960194280      -12.0166024159       11.2685736648  W2        12042           0.0000000000
     35083     11695  TIP3      OH2            22.8882194280       -6.9114224159        7.7315636648  W2        12043           0.0000000000
     35084     11695  TIP3      H1             23.4154394280       -6.1379824159        7.5314436648  W2        12043           0.0000000000
     35085     11695  TIP3      H2             22.0080694280       -6.6865024159        7.4299636648  W2        12043           0.0000000000
     35086     11696  TIP3      OH2            18.6429894280      -12.0490124159        2.3188036648  W2        12044           0.0000000000
     35087     11696  TIP3      H1             19.2589794280      -11.4222924159        2.6982836648  W2        12044           0.0000000000
     35088     11696  TIP3      H2             17.7812494280      -11.7330324159        2.5904536648  W2        12044           0.0000000000
     35089     11697  TIP3      OH2            24.3154494280       -9.2484324159        7.3079936648  W2        12045           0.0000000000
     35090     11697  TIP3      H1             24.0744494280       -8.3229924159        7.3495236648  W2        12045           0.0000000000
     35091     11697  TIP3      H2             23.5748094280       -9.7073024159        7.7043836648  W2        12045           0.0000000000
     35092     11698  TIP3      OH2            24.8301094280       -5.0990724159       13.6231036648  W2        12046           0.0000000000
     35093     11698  TIP3      H1             25.1925794280       -4.2445124159       13.3895436648  W2        12046           0.0000000000
     35094     11698  TIP3      H2             25.3616294280       -5.3909124159       14.3637336648  W2        12046           0.0000000000
     35095     11699  TIP3      OH2            22.9985294280       -4.2266724159        6.8532136648  W2        12047           0.0000000000
     35096     11699  TIP3      H1             22.0485794280       -4.1209324159        6.9045436648  W2        12047           0.0000000000
     35097     11699  TIP3      H2             23.3503394280       -3.4059324159        7.1979636648  W2        12047           0.0000000000
     35098     11700  TIP3      OH2            28.3741894280       -9.0000024159       13.3236636648  W2        12048           0.0000000000
     35099     11700  TIP3      H1             27.9483194280       -9.2278324159       14.1500636648  W2        12048           0.0000000000
     35100     11700  TIP3      H2             28.9547694280       -9.7388224159       13.1411936648  W2        12048           0.0000000000
     35101     11701  TIP3      OH2            30.5770794280       -8.0709524159        2.3975636648  W2        12049           0.0000000000
     35102     11701  TIP3      H1             30.9303894280       -8.4509724159        3.2019136648  W2        12049           0.0000000000
     35103     11701  TIP3      H2             29.6284294280       -8.1644724159        2.4844936648  W2        12049           0.0000000000
     35104     11702  TIP3      OH2            31.0326094280       -4.4480524159       15.7931436648  W2        12050           0.0000000000
     35105     11702  TIP3      H1             30.4309294280       -5.0037624159       15.2977736648  W2        12050           0.0000000000
     35106     11702  TIP3      H2             31.3139794280       -3.7810724159       15.1668836648  W2        12050           0.0000000000
     35107     11703  TIP3      OH2            35.0805194280       -3.5917024159        2.5985836648  W2        12051           0.0000000000
     35108     11703  TIP3      H1             35.8243094280       -3.0056524159        2.4587436648  W2        12051           0.0000000000
     35109     11703  TIP3      H2             34.3863294280       -3.0231224159        2.9318236648  W2        12051           0.0000000000
     35110     11704  TIP3      OH2            19.1551994280      -17.2152824159       15.2004036648  W2        12052           0.0000000000
     35111     11704  TIP3      H1             18.2624294280      -16.8767424159       15.1328036648  W2        12052           0.0000000000
     35112     11704  TIP3      H2             19.0564794280      -18.0706724159       15.6184836648  W2        12052           0.0000000000
     35113     11705  TIP3      OH2            31.4430094280       -9.3987524159        4.6243536648  W2        12053           0.0000000000
     35114     11705  TIP3      H1             31.1657694280      -10.1268224159        5.1804636648  W2        12053           0.0000000000
     35115     11705  TIP3      H2             32.3703094280       -9.2795524159        4.8296136648  W2        12053           0.0000000000
     35116     11706  TIP3      OH2            18.8063994280       -5.4108424159       13.6353436648  W2        12054           0.0000000000
     35117     11706  TIP3      H1             19.0234294280       -6.3426024159       13.6043136648  W2        12054           0.0000000000
     35118     11706  TIP3      H2             19.0527494280       -5.1363424159       14.5186236648  W2        12054           0.0000000000
     35119     11707  TIP3      OH2            24.6678594280       -6.9593424159        0.8445636648  W2        12055           0.0000000000
     35120     11707  TIP3      H1             24.9068394280       -7.7075324159        0.2974536648  W2        12055           0.0000000000
     35121     11707  TIP3      H2             24.3989894280       -7.3471724159        1.6773436648  W2        12055           0.0000000000
     35122     11708  TIP3      OH2            23.6049194280       -7.3889624159        3.3008236648  W2        12056           0.0000000000
     35123     11708  TIP3      H1             23.7517194280       -7.9089824159        4.0909136648  W2        12056           0.0000000000
     35124     11708  TIP3      H2             23.6020894280       -6.4822024159        3.6074136648  W2        12056           0.0000000000
     35125     11709  TIP3      OH2            20.0580294280      -10.1366324159        3.8113636648  W2        12057           0.0000000000
     35126     11709  TIP3      H1             19.3719594280       -9.7843824159        4.3783336648  W2        12057           0.0000000000
     35127     11709  TIP3      H2             20.5808194280       -9.3736724159        3.5647936648  W2        12057           0.0000000000
     35128     11710  TIP3      OH2            27.8895394280      -17.4742524159       14.0902636648  W2        12058           0.0000000000
     35129     11710  TIP3      H1             28.5883294280      -17.4003824159       14.7402336648  W2        12058           0.0000000000
     35130     11710  TIP3      H2             27.5086794280      -18.3387524159       14.2445536648  W2        12058           0.0000000000
     35131     11711  TIP3      OH2            28.6740294280      -17.8220824159        5.1874936648  W2        12059           0.0000000000
     35132     11711  TIP3      H1             28.8938594280      -17.3505424159        4.3840336648  W2        12059           0.0000000000
     35133     11711  TIP3      H2             29.2324294280      -17.4278224159        5.8575536648  W2        12059           0.0000000000
     35134     11712  TIP3      OH2            26.3426394280       -5.6916024159        4.0502436648  W2        12060           0.0000000000
     35135     11712  TIP3      H1             25.5262494280       -5.1946324159        4.1026736648  W2        12060           0.0000000000
     35136     11712  TIP3      H2             26.8722694280       -5.2162524159        3.4101236648  W2        12060           0.0000000000
     35137     11713  TIP3      OH2            25.8740194280      -16.0942024159        6.0223336648  W2        12061           0.0000000000
     35138     11713  TIP3      H1             26.6862794280      -15.5898824159        6.0685036648  W2        12061           0.0000000000
     35139     11713  TIP3      H2             25.6293194280      -16.2392324159        6.9362936648  W2        12061           0.0000000000
     35140     11714  TIP3      OH2            26.4096594280      -15.1079324159       15.2069936648  W2        12062           0.0000000000
     35141     11714  TIP3      H1             26.5286894280      -14.5343924159       15.9640336648  W2        12062           0.0000000000
     35142     11714  TIP3      H2             27.0651194280      -15.7959924159       15.3217736648  W2        12062           0.0000000000
     35143     11715  TIP3      OH2            26.7576894280      -19.0129024159        6.9604436648  W2        12063           0.0000000000
     35144     11715  TIP3      H1             26.4110394280      -18.3958424159        7.6048736648  W2        12063           0.0000000000
     35145     11715  TIP3      H2             27.4163794280      -18.5123324159        6.4789936648  W2        12063           0.0000000000
     35146     11716  TIP3      OH2            23.6809494280       -4.6478824159        4.0319336648  W2        12064           0.0000000000
     35147     11716  TIP3      H1             23.8418194280       -3.8481324159        3.5311936648  W2        12064           0.0000000000
     35148     11716  TIP3      H2             23.4837294280       -4.3412824159        4.9169936648  W2        12064           0.0000000000
     35149     11717  TIP3      OH2            22.4153894280      -17.9499624159        3.6476936648  W2        12065           0.0000000000
     35150     11717  TIP3      H1             22.3318694280      -17.0616524159        3.9943336648  W2        12065           0.0000000000
     35151     11717  TIP3      H2             23.3054194280      -18.2152924159        3.8793736648  W2        12065           0.0000000000
     35152     11718  TIP3      OH2            32.6142394280      -17.2009024159       16.0419636648  W2        12066           0.0000000000
     35153     11718  TIP3      H1             31.6978194280      -16.9387324159       15.9543336648  W2        12066           0.0000000000
     35154     11718  TIP3      H2             32.9497394280      -17.2040024159       15.1454936648  W2        12066           0.0000000000
     35155     11719  TIP3      OH2            31.2163394280      -13.4508024159       10.1376936648  W2        12067           0.0000000000
     35156     11719  TIP3      H1             30.4187794280      -13.8657824159        9.8091936648  W2        12067           0.0000000000
     35157     11719  TIP3      H2             31.6614494280      -14.1414324159       10.6287436648  W2        12067           0.0000000000
     35158     11720  TIP3      OH2            20.6739194280       -7.5227424159        2.7081436648  W2        12068           0.0000000000
     35159     11720  TIP3      H1             21.2660694280       -6.8232624159        2.9843836648  W2        12068           0.0000000000
     35160     11720  TIP3      H2             21.1332194280       -7.9557924159        1.9886036648  W2        12068           0.0000000000
     35161     11721  TIP3      OH2            18.9898394280      -14.8584424159        1.8240836648  W2        12069           0.0000000000
     35162     11721  TIP3      H1             18.9450994280      -13.9191324159        2.0027836648  W2        12069           0.0000000000
     35163     11721  TIP3      H2             18.1021594280      -15.0939524159        1.5542936648  W2        12069           0.0000000000
     35164     11722  TIP3      OH2            32.3027994280       -4.1945524159       11.7600436648  W2        12070           0.0000000000
     35165     11722  TIP3      H1             32.1472294280       -3.5161124159       11.1029736648  W2        12070           0.0000000000
     35166     11722  TIP3      H2             33.2354394280       -4.1226224159       11.9631036648  W2        12070           0.0000000000
     35167     11723  TIP3      OH2            19.7980394280      -20.0767824159       10.4971836648  W2        12071           0.0000000000
     35168     11723  TIP3      H1             19.5690194280      -20.0175324159        9.5696836648  W2        12071           0.0000000000
     35169     11723  TIP3      H2             19.3553794280      -20.8682324159       10.8035936648  W2        12071           0.0000000000
     35170     11724  TIP3      OH2            18.7283694280       -6.1360724159        6.6577636648  W2        12072           0.0000000000
     35171     11724  TIP3      H1             17.8962294280       -5.6638024159        6.6849036648  W2        12072           0.0000000000
     35172     11724  TIP3      H2             19.2741994280       -5.6263124159        6.0590736648  W2        12072           0.0000000000
     35173     11725  TIP3      OH2            26.7060394280       -5.0962024159        0.9831636648  W2        12075           0.0000000000
     35174     11725  TIP3      H1             26.0621394280       -5.7273424159        1.3045336648  W2        12075           0.0000000000
     35175     11725  TIP3      H2             27.4678694280       -5.6274024159        0.7515136648  W2        12075           0.0000000000
     35176     11726  TIP3      OH2            31.3103294280       -5.2792124159        1.2169636648  W2        12077           0.0000000000
     35177     11726  TIP3      H1             31.5933694280       -6.0736924159        1.6696536648  W2        12077           0.0000000000
     35178     11726  TIP3      H2             32.0501194280       -5.0461124159        0.6560736648  W2        12077           0.0000000000
     35179     11727  TIP3      OH2            22.2650594280       -9.3697224159        1.0744536648  W2        12079           0.0000000000
     35180     11727  TIP3      H1             22.3294694280      -10.1637624159        1.6050936648  W2        12079           0.0000000000
     35181     11727  TIP3      H2             22.9179794280       -9.4884424159        0.3846536648  W2        12079           0.0000000000
     35182     11728  TIP3      OH2            27.6173994280       -8.3225524159        0.8102536648  W2        12081           0.0000000000
     35183     11728  TIP3      H1             27.3488094280       -8.1423424159        1.7111436648  W2        12081           0.0000000000
     35184     11728  TIP3      H2             27.4109594280       -9.2479324159        0.6788336648  W2        12081           0.0000000000
     35185     11729  TIP3      OH2            30.3138194280       -9.8277524159       15.7578636648  W2        12082           0.0000000000
     35186     11729  TIP3      H1             31.0592994280       -9.2393824159       15.6382636648  W2        12082           0.0000000000
     35187     11729  TIP3      H2             29.5564994280       -9.2457824159       15.8211736648  W2        12082           0.0000000000
     35188     11730  TIP3      OH2            23.4144394280      -11.3971024159        3.3802536648  W2        12084           0.0000000000
     35189     11730  TIP3      H1             22.9546394280      -11.8812724159        4.0661036648  W2        12084           0.0000000000
     35190     11730  TIP3      H2             23.6693094280      -12.0655624159        2.7443036648  W2        12084           0.0000000000
     35191     11731  TIP3      OH2            22.7033694280      -13.5043924159       15.7362136648  W2        12085           0.0000000000
     35192     11731  TIP3      H1             22.0849794280      -12.8297324159       16.0166836648  W2        12085           0.0000000000
     35193     11731  TIP3      H2             23.0474894280      -13.1830024159       14.9028336648  W2        12085           0.0000000000
     35194     11732  TIP3      OH2            24.4854794280      -13.1539224159        1.6425736648  W2        12086           0.0000000000
     35195     11732  TIP3      H1             24.3049794280      -13.3088024159        0.7154036648  W2        12086           0.0000000000
     35196     11732  TIP3      H2             25.4355294280      -13.0460524159        1.6873636648  W2        12086           0.0000000000
     35197     11733  TIP3      OH2            33.8753094280      -10.7995024159        1.0883836648  W2        12088           0.0000000000
     35198     11733  TIP3      H1             33.6017894280      -11.2239524159        0.2752136648  W2        12088           0.0000000000
     35199     11733  TIP3      H2             33.9147194280       -9.8680524159        0.8714236648  W2        12088           0.0000000000
     35200     11734  TIP3      OH2            23.0427394280      -16.1493124159       16.8185236648  W2        12089           0.0000000000
     35201     11734  TIP3      H1             23.1928294280      -16.8781824159       16.2164936648  W2        12089           0.0000000000
     35202     11734  TIP3      H2             23.0449794280      -15.3721424159       16.2597436648  W2        12089           0.0000000000
     35203     11735  TIP3      OH2            23.4553094280      -17.7797324159       14.3112636648  W2        12090           0.0000000000
     35204     11735  TIP3      H1             23.9910594280      -17.3280624159       13.6591936648  W2        12090           0.0000000000
     35205     11735  TIP3      H2             22.6032694280      -17.8877524159       13.8886736648  W2        12090           0.0000000000
     35206     11736  TIP3      OH2            25.0371494280      -12.3401124159       14.5507836648  W2        12091           0.0000000000
     35207     11736  TIP3      H1             25.7876294280      -12.4963624159       13.9775636648  W2        12091           0.0000000000
     35208     11736  TIP3      H2             24.6979794280      -11.4884524159       14.2753336648  W2        12091           0.0000000000
     35209     11737  TIP3      OH2            30.7694894280      -11.7364124159       17.6565836648  W2        12093           0.0000000000
     35210     11737  TIP3      H1             30.4879894280      -11.0269524159       17.0789636648  W2        12093           0.0000000000
     35211     11737  TIP3      H2             31.7119194280      -11.8091124159       17.5057036648  W2        12093           0.0000000000
     35212     11738  TIP3      OH2            24.2608594280      -20.3231624159       14.7426236648  W2        12095           0.0000000000
     35213     11738  TIP3      H1             24.1628194280      -19.3768424159       14.6372436648  W2        12095           0.0000000000
     35214     11738  TIP3      H2             23.5184794280      -20.6957824159       14.2669736648  W2        12095           0.0000000000
     35215     11739  TIP3      OH2            28.2405694280      -16.8742724159       17.3818136648  W2        12097           0.0000000000
     35216     11739  TIP3      H1             27.2931094280      -16.8423024159       17.5141436648  W2        12097           0.0000000000
     35217     11739  TIP3      H2             28.5532394280      -17.4995624159       18.0356336648  W2        12097           0.0000000000
     35218     11740  TIP3      OH2            24.4826694280      -21.0294224159       17.4139036648  W2        12100           0.0000000000
     35219     11740  TIP3      H1             25.1945094280      -21.6692024159       17.3998136648  W2        12100           0.0000000000
     35220     11740  TIP3      H2             24.3817094280      -20.7625924159       16.5002136648  W2        12100           0.0000000000
     35221     11741  TIP3      OH2            24.3826494280       -2.4635524159        2.6439336648  W2        12102           0.0000000000
     35222     11741  TIP3      H1             25.3157194280       -2.3056824159        2.7877736648  W2        12102           0.0000000000
     35223     11741  TIP3      H2             24.1185294280       -1.7882524159        2.0190836648  W2        12102           0.0000000000
     35224     11742  TIP3      OH2            17.9511394280       -7.8271724159        2.1267436648  W2        12103           0.0000000000
     35225     11742  TIP3      H1             18.8650594280       -7.7482824159        2.4001336648  W2        12103           0.0000000000
     35226     11742  TIP3      H2             17.9584494280       -8.5142124159        1.4603036648  W2        12103           0.0000000000
     35227     11743  TIP3      OH2            16.6001994280       -2.4343224159        7.2041336648  W2        12104           0.0000000000
     35228     11743  TIP3      H1             15.9529094280       -2.8961524159        6.6712536648  W2        12104           0.0000000000
     35229     11743  TIP3      H2             16.9546594280       -3.1059924159        7.7867536648  W2        12104           0.0000000000
     35230     11744  TIP3      OH2            17.4701194280       -4.3536224159        9.0087536648  W2        12105           0.0000000000
     35231     11744  TIP3      H1             17.1357994280       -5.2338924159        9.1807736648  W2        12105           0.0000000000
     35232     11744  TIP3      H2             17.6923594280       -4.0081224159        9.8733136648  W2        12105           0.0000000000
     35233     11745  TIP3      OH2            35.0185994280       -3.5439824159       11.9892336648  W2        12106           0.0000000000
     35234     11745  TIP3      H1             34.9972694280       -3.3591424159       12.9281736648  W2        12106           0.0000000000
     35235     11745  TIP3      H2             35.7092194280       -2.9755824159       11.6483736648  W2        12106           0.0000000000
     35236     11746  TIP3      OH2            34.5818894280       -3.9768724159       14.9111436648  W2        12107           0.0000000000
     35237     11746  TIP3      H1             34.0947594280       -4.7124624159       14.5398836648  W2        12107           0.0000000000
     35238     11746  TIP3      H2             35.1311594280       -4.3704824159       15.5890836648  W2        12107           0.0000000000
     35239     11747  TIP3      OH2            34.3335894280       -9.9306924159        5.0634236648  W2        12109           0.0000000000
     35240     11747  TIP3      H1             35.1837294280       -9.5096024159        5.1905836648  W2        12109           0.0000000000
     35241     11747  TIP3      H2             34.3390994280      -10.6706824159        5.6705636648  W2        12109           0.0000000000
     35242     11748  TIP3      OH2            34.7281494280      -11.8769524159        6.8869936648  W2        12110           0.0000000000
     35243     11748  TIP3      H1             34.0016094280      -12.3566924159        7.2847536648  W2        12110           0.0000000000
     35244     11748  TIP3      H2             35.3094794280      -11.6714824159        7.6191536648  W2        12110           0.0000000000
     35245     11749  TIP3      OH2            34.4872694280       -9.0922024159       11.8347536648  W2        12111           0.0000000000
     35246     11749  TIP3      H1             35.3206894280       -9.4702024159       11.5541136648  W2        12111           0.0000000000
     35247     11749  TIP3      H2             34.5992994280       -8.1490824159       11.7156636648  W2        12111           0.0000000000
     35248     11750  TIP3      OH2            32.9734994280       -6.2144524159       14.1415936648  W2        12112           0.0000000000
     35249     11750  TIP3      H1             32.3260294280       -5.8893024159       14.7671136648  W2        12112           0.0000000000
     35250     11750  TIP3      H2             32.4558994280       -6.6546824159       13.4674236648  W2        12112           0.0000000000
     35251     11751  TIP3      OH2            34.9964594280      -11.9761024159        3.2781236648  W2        12113           0.0000000000
     35252     11751  TIP3      H1             34.4745694280      -11.6196924159        2.5592136648  W2        12113           0.0000000000
     35253     11751  TIP3      H2             34.9633794280      -11.3013224159        3.9562136648  W2        12113           0.0000000000
     35254     11752  TIP3      OH2            33.3453594280      -14.7365424159        1.8288336648  W2        12114           0.0000000000
     35255     11752  TIP3      H1             33.4417994280      -14.0698424159        1.1488036648  W2        12114           0.0000000000
     35256     11752  TIP3      H2             33.2053194280      -15.5519124159        1.3473836648  W2        12114           0.0000000000
     35257     11753  TIP3      OH2            32.5148294280      -13.3563024159        7.4498636648  W2        12115           0.0000000000
     35258     11753  TIP3      H1             32.3647094280      -14.3014424159        7.4296436648  W2        12115           0.0000000000
     35259     11753  TIP3      H2             32.1612794280      -13.0751624159        8.2937736648  W2        12115           0.0000000000
     35260     11754  TIP3      OH2            17.5500694280      -11.2780824159       11.4602436648  W2        12116           0.0000000000
     35261     11754  TIP3      H1             17.7343594280      -11.3599124159       10.5245336648  W2        12116           0.0000000000
     35262     11754  TIP3      H2             18.3993594280      -11.4023824159       11.8838836648  W2        12116           0.0000000000
     35263     11755  TIP3      OH2            33.3711194280      -11.3859724159       17.0886936648  W2        12117           0.0000000000
     35264     11755  TIP3      H1             33.9538494280      -12.1207424159       17.2804136648  W2        12117           0.0000000000
     35265     11755  TIP3      H2             33.9350494280      -10.6139424159       17.1352736648  W2        12117           0.0000000000
     35266     11756  TIP3      OH2            34.8678294280      -13.4833924159       17.7732336648  W2        12118           0.0000000000
     35267     11756  TIP3      H1             34.0044994280      -13.8621824159       17.6077036648  W2        12118           0.0000000000
     35268     11756  TIP3      H2             35.4721994280      -14.2219124159       17.6988136648  W2        12118           0.0000000000
     35269     11757  TIP3      OH2            32.5927394280      -17.3285624159        0.9463836648  W2        12119           0.0000000000
     35270     11757  TIP3      H1             33.2033194280      -17.6998824159        1.5832036648  W2        12119           0.0000000000
     35271     11757  TIP3      H2             31.7558894280      -17.7498724159        1.1423836648  W2        12119           0.0000000000
     35272     11758  TIP3      OH2            32.2253094280      -15.7737224159        5.9123736648  W2        12120           0.0000000000
     35273     11758  TIP3      H1             32.5050194280      -16.6806824159        6.0365436648  W2        12120           0.0000000000
     35274     11758  TIP3      H2             32.9844794280      -15.3395724159        5.5232936648  W2        12120           0.0000000000
     35275     11759  TIP3      OH2            32.8371394280      -15.1919824159       11.3482636648  W2        12121           0.0000000000
     35276     11759  TIP3      H1             33.7699394280      -14.9799924159       11.3138636648  W2        12121           0.0000000000
     35277     11759  TIP3      H2             32.6018894280      -15.0907724159       12.2705636648  W2        12121           0.0000000000
     35278     11760  TIP3      OH2            32.8663294280      -14.4554524159       14.1242036648  W2        12122           0.0000000000
     35279     11760  TIP3      H1             32.0234594280      -14.1874124159       14.4901836648  W2        12122           0.0000000000
     35280     11760  TIP3      H2             33.3087594280      -13.6332624159       13.9133136648  W2        12122           0.0000000000
     35281     11761  TIP3      OH2            17.1475494280      -16.0075824159       17.6011236648  W2        12123           0.0000000000
     35282     11761  TIP3      H1             18.0670394280      -16.1297524159       17.8374336648  W2        12123           0.0000000000
     35283     11761  TIP3      H2             16.6979994280      -16.7576124159       17.9904736648  W2        12123           0.0000000000
     35284     11762  TIP3      OH2            32.8387894280      -18.5107924159        5.9605736648  W2        12125           0.0000000000
     35285     11762  TIP3      H1             33.0212894280      -18.9596424159        6.7860736648  W2        12125           0.0000000000
     35286     11762  TIP3      H2             32.2390794280      -19.0953524159        5.4970336648  W2        12125           0.0000000000
     35287     11763  TIP3      OH2            18.3687994280      -17.6954224159       10.4924136648  W2        12126           0.0000000000
     35288     11763  TIP3      H1             18.8139594280      -18.4871724159       10.7943836648  W2        12126           0.0000000000
     35289     11763  TIP3      H2             18.8350994280      -16.9789024159       10.9229736648  W2        12126           0.0000000000
     35290     11764  TIP3      OH2            16.6728294280      -14.6961224159       11.5614336648  W2        12127           0.0000000000
     35291     11764  TIP3      H1             17.1648094280      -14.9170724159       10.7706336648  W2        12127           0.0000000000
     35292     11764  TIP3      H2             17.0349194280      -13.8557824159       11.8423836648  W2        12127           0.0000000000
     35293     11765  TIP3      OH2            34.7054094280      -18.4429824159        2.4886036648  W2        12129           0.0000000000
     35294     11765  TIP3      H1             35.1176694280      -19.1644124159        2.0134036648  W2        12129           0.0000000000
     35295     11765  TIP3      H2             35.3870594280      -17.7735224159        2.5470336648  W2        12129           0.0000000000
     35296     11766  TIP3      OH2            16.9864794280      -18.4382124159        5.6156736648  W2        12130           0.0000000000
     35297     11766  TIP3      H1             16.0613194280      -18.2295524159        5.4862236648  W2        12130           0.0000000000
     35298     11766  TIP3      H2             17.4404694280      -17.9541324159        4.9259036648  W2        12130           0.0000000000
     35299     11767  TIP3      OH2            31.7571994280       -3.4540424159        7.5614136648  W2        12131           0.0000000000
     35300     11767  TIP3      H1             32.4094894280       -3.8018324159        6.9533236648  W2        12131           0.0000000000
     35301     11767  TIP3      H2             32.2675794280       -2.9657224159        8.2073836648  W2        12131           0.0000000000
     35302     11768  TIP3      OH2            16.9500194280      -19.7003124159       13.9599236648  W2        12132           0.0000000000
     35303     11768  TIP3      H1             16.2850694280      -19.9462824159       14.6030136648  W2        12132           0.0000000000
     35304     11768  TIP3      H2             16.5071494280      -19.0782724159       13.3827236648  W2        12132           0.0000000000
     35305     11769  TIP3      OH2            22.0962394280       -5.5507824159       14.3629036648  W2        12134           0.0000000000
     35306     11769  TIP3      H1             21.6713494280       -4.7409324159       14.0803636648  W2        12134           0.0000000000
     35307     11769  TIP3      H2             23.0005194280       -5.4653724159       14.0608836648  W2        12134           0.0000000000
     35308     11770  TIP3      OH2            26.4073794280       -4.1517824159       17.3222736648  W2        12135           0.0000000000
     35309     11770  TIP3      H1             26.5921294280       -4.4851724159       18.2003036648  W2        12135           0.0000000000
     35310     11770  TIP3      H2             27.2538294280       -3.8419224159       17.0001936648  W2        12135           0.0000000000
     35311     11771  TIP3      OH2            28.7524194280       -2.8658924159       16.5664136648  W2        12136           0.0000000000
     35312     11771  TIP3      H1             29.4293094280       -3.4986624159       16.3263336648  W2        12136           0.0000000000
     35313     11771  TIP3      H2             29.0742994280       -2.4648424159       17.3737436648  W2        12136           0.0000000000
     35314     11772  TIP3      OH2            33.6697994280      -20.2763424159       15.6459136648  W2        12137           0.0000000000
     35315     11772  TIP3      H1             32.8571494280      -19.9513124159       15.2583836648  W2        12137           0.0000000000
     35316     11772  TIP3      H2             33.9026494280      -21.0364924159       15.1128236648  W2        12137           0.0000000000
     35317     11773  TIP3      OH2            19.4979094280       -2.2943924159       14.4104336648  W2        12138           0.0000000000
     35318     11773  TIP3      H1             18.7775494280       -1.8542924159       13.9592036648  W2        12138           0.0000000000
     35319     11773  TIP3      H2             19.1323094280       -2.5449224159       15.2588336648  W2        12138           0.0000000000
     35320     11774  TIP3      OH2            21.9651694280       -2.6940024159       13.4401536648  W2        12139           0.0000000000
     35321     11774  TIP3      H1             21.1003894280       -2.6221524159       13.8441636648  W2        12139           0.0000000000
     35322     11774  TIP3      H2             21.9100694280       -2.1472724159       12.6564036648  W2        12139           0.0000000000
     35323     11775  TIP3      OH2            26.6757294280       -2.8061124159       12.6157536648  W2        12140           0.0000000000
     35324     11775  TIP3      H1             26.2191294280       -2.2771424159       11.9615936648  W2        12140           0.0000000000
     35325     11775  TIP3      H2             26.8385294280       -2.2029724159       13.3409836648  W2        12140           0.0000000000
     35326     11776  TIP3      OH2            29.0033594280       -3.9281524159       13.5607836648  W2        12141           0.0000000000
     35327     11776  TIP3      H1             28.0987294280       -3.7631324159       13.2949936648  W2        12141           0.0000000000
     35328     11776  TIP3      H2             29.4322194280       -3.0749324159       13.4951236648  W2        12141           0.0000000000
     35329     11777  TIP3      OH2            31.6075494280       -2.3582424159       13.8555636648  W2        12142           0.0000000000
     35330     11777  TIP3      H1             31.4257494280       -1.4423524159       13.6450536648  W2        12142           0.0000000000
     35331     11777  TIP3      H2             31.7843294280       -2.7685324159       13.0090236648  W2        12142           0.0000000000
     35332     11778  TIP3      OH2            18.9127194280       -3.6711424159       11.3206136648  W2        12143           0.0000000000
     35333     11778  TIP3      H1             18.8943194280       -4.0966324159       12.1778436648  W2        12143           0.0000000000
     35334     11778  TIP3      H2             19.7175094280       -3.9896424159       10.9118336648  W2        12143           0.0000000000
     35335     11779  TIP3      OH2            21.0540294280       -4.9612724159        9.9756036648  W2        12144           0.0000000000
     35336     11779  TIP3      H1             20.8350994280       -5.8775324159       10.1452036648  W2        12144           0.0000000000
     35337     11779  TIP3      H2             21.8782494280       -4.8212324159       10.4417436648  W2        12144           0.0000000000
     35338     11780  TIP3      OH2            23.5912794280       -4.4913424159       10.8244036648  W2        12145           0.0000000000
     35339     11780  TIP3      H1             23.8038494280       -5.3794424159       10.5374936648  W2        12145           0.0000000000
     35340     11780  TIP3      H2             23.6557894280       -4.5255724159       11.7788036648  W2        12145           0.0000000000
     35341     11781  TIP3      OH2            27.0996494280      -18.8272824159        9.9687336648  W2        12146           0.0000000000
     35342     11781  TIP3      H1             26.4253294280      -19.4567224159       10.2243136648  W2        12146           0.0000000000
     35343     11781  TIP3      H2             27.6635694280      -19.3113924159        9.3655236648  W2        12146           0.0000000000
     35344     11782  TIP3      OH2            32.2423694280      -20.7198824159       10.0814436648  W2        12147           0.0000000000
     35345     11782  TIP3      H1             32.8461294280      -20.1723424159        9.5795436648  W2        12147           0.0000000000
     35346     11782  TIP3      H2             31.3725694280      -20.4008424159        9.8408536648  W2        12147           0.0000000000
     35347     11783  TIP3      OH2            33.9694094280      -19.5810124159        8.4145336648  W2        12148           0.0000000000
     35348     11783  TIP3      H1             34.5811594280      -20.0954424159        7.8878936648  W2        12148           0.0000000000
     35349     11783  TIP3      H2             34.3517494280      -18.7038024159        8.4379736648  W2        12148           0.0000000000
     35350     11784  TIP3      OH2            19.4263994280      -20.1932524159        7.7907236648  W2        12149           0.0000000000
     35351     11784  TIP3      H1             18.6493794280      -20.4277624159        7.2833136648  W2        12149           0.0000000000
     35352     11784  TIP3      H2             19.9567594280      -20.9900424159        7.7995236648  W2        12149           0.0000000000
     35353     11785  TIP3      OH2            18.2627394280      -20.3954424159        3.5943336648  W2        12150           0.0000000000
     35354     11785  TIP3      H1             18.7018094280      -19.7843924159        3.0026836648  W2        12150           0.0000000000
     35355     11785  TIP3      H2             17.6289794280      -19.8570324159        4.0683336648  W2        12150           0.0000000000
     35356     11786  TIP3      OH2            24.0056594280      -20.2665424159        7.6040336648  W2        12151           0.0000000000
     35357     11786  TIP3      H1             24.8799994280      -19.8781124159        7.5744636648  W2        12151           0.0000000000
     35358     11786  TIP3      H2             23.8697394280      -20.4817624159        8.5267536648  W2        12151           0.0000000000
     35359     11787  TIP3      OH2            29.5624994280      -20.2365624159        9.2532036648  W2        12152           0.0000000000
     35360     11787  TIP3      H1             29.6386594280      -20.1414024159        8.3038036648  W2        12152           0.0000000000
     35361     11787  TIP3      H2             29.2874194280      -21.1442724159        9.3821136648  W2        12152           0.0000000000
     35362     11788  TIP3      OH2            30.9157594280      -20.2107824159        4.9457036648  W2        12153           0.0000000000
     35363     11788  TIP3      H1             30.2128694280      -19.5958624159        4.7358436648  W2        12153           0.0000000000
     35364     11788  TIP3      H2             30.4708994280      -21.0481124159        5.0767936648  W2        12153           0.0000000000
     35365     11789  TIP3      OH2            18.1636894280       -4.4472224159        4.4918436648  W2        12154           0.0000000000
     35366     11789  TIP3      H1             17.4786794280       -4.4853324159        3.8243536648  W2        12154           0.0000000000
     35367     11789  TIP3      H2             18.1674094280       -3.5344624159        4.7800536648  W2        12154           0.0000000000
     35368     11790  TIP3      OH2            20.1236494280      -18.4792924159        2.0367436648  W2        12155           0.0000000000
     35369     11790  TIP3      H1             20.6149894280      -19.1090524159        1.5092936648  W2        12155           0.0000000000
     35370     11790  TIP3      H2             20.7472794280      -18.1833524159        2.6998636648  W2        12155           0.0000000000
     35371     11791  TIP3      OH2            25.1496594280      -18.1861424159        4.4937936648  W2        12156           0.0000000000
     35372     11791  TIP3      H1             25.3277894280      -18.8328224159        5.1766536648  W2        12156           0.0000000000
     35373     11791  TIP3      H2             25.0962794280      -17.3523724159        4.9609036648  W2        12156           0.0000000000
     35374     11792  TIP3      OH2            27.0280394280       -3.2377324159        2.8894636648  W2        12157           0.0000000000
     35375     11792  TIP3      H1             27.8940594280       -2.8709924159        2.7112836648  W2        12157           0.0000000000
     35376     11792  TIP3      H2             26.7813194280       -3.6769324159        2.0755436648  W2        12157           0.0000000000
     35377     11793  TIP3      OH2            33.7369994280       -3.6747024159        5.5685736648  W2        12158           0.0000000000
     35378     11793  TIP3      H1             33.5427094280       -4.4224924159        5.0035336648  W2        12158           0.0000000000
     35379     11793  TIP3      H2             33.6980094280       -2.9166924159        4.9853636648  W2        12158           0.0000000000
     35380     11794  TIP3      OH2            19.3841994280      -19.6790624159       17.3083436648  W2        12159           0.0000000000
     35381     11794  TIP3      H1             19.0180194280      -20.4448024159       17.7508136648  W2        12159           0.0000000000
     35382     11794  TIP3      H2             20.2970494280      -19.6500424159       17.5948536648  W2        12159           0.0000000000
     35383     11795  TIP3      OH2            19.9818094280       -3.5271424159        1.5170536648  W2        12161           0.0000000000
     35384     11795  TIP3      H1             19.7142694280       -3.2408524159        2.3903636648  W2        12161           0.0000000000
     35385     11795  TIP3      H2             20.7530694280       -4.0732224159        1.6693036648  W2        12161           0.0000000000
     35386     11796  TIP3      OH2            32.9546194280       -4.9234624159       17.7187536648  W2        12163           0.0000000000
     35387     11796  TIP3      H1             32.1728094280       -5.1096624159       17.1988136648  W2        12163           0.0000000000
     35388     11796  TIP3      H2             32.8826094280       -3.9940324159       17.9360036648  W2        12163           0.0000000000
     35389     11797  TIP3      OH2            47.3606594280      -11.0370224159        7.7494736648  W2        12164           0.0000000000
     35390     11797  TIP3      H1             47.4497694280      -10.0932024159        7.6171836648  W2        12164           0.0000000000
     35391     11797  TIP3      H2             46.7224194280      -11.3123824159        7.0914136648  W2        12164           0.0000000000
     35392     11798  TIP3      OH2            46.2937894280      -11.7819524159       11.1682936648  W2        12165           0.0000000000
     35393     11798  TIP3      H1             46.2555394280      -12.4283224159       11.8732536648  W2        12165           0.0000000000
     35394     11798  TIP3      H2             45.9714394280      -12.2485124159       10.3971636648  W2        12165           0.0000000000
     35395     11799  TIP3      OH2            38.6622894280      -12.1677424159       12.7612836648  W2        12166           0.0000000000
     35396     11799  TIP3      H1             38.7034994280      -12.7934124159       13.4845236648  W2        12166           0.0000000000
     35397     11799  TIP3      H2             39.3650594280      -11.5438824159       12.9433236648  W2        12166           0.0000000000
     35398     11800  TIP3      OH2            49.9998094280       -8.8429124159        9.4698036648  W2        12167           0.0000000000
     35399     11800  TIP3      H1             49.5590794280       -9.5633124159        9.9203636648  W2        12167           0.0000000000
     35400     11800  TIP3      H2             49.9867794280       -8.1221924159       10.0995736648  W2        12167           0.0000000000
     35401     11801  TIP3      OH2            39.5855994280       -7.7178524159       11.2961936648  W2        12168           0.0000000000
     35402     11801  TIP3      H1             39.2161194280       -8.5198024159       10.9266236648  W2        12168           0.0000000000
     35403     11801  TIP3      H2             40.5267094280       -7.8863624159       11.3425336648  W2        12168           0.0000000000
     35404     11802  TIP3      OH2            36.1956494280      -14.0575924159        6.6890736648  W2        12169           0.0000000000
     35405     11802  TIP3      H1             35.7479894280      -13.2117224159        6.6707236648  W2        12169           0.0000000000
     35406     11802  TIP3      H2             35.6347694280      -14.6371724159        6.1735836648  W2        12169           0.0000000000
     35407     11803  TIP3      OH2            36.9062594280      -11.8956324159        8.8148736648  W2        12170           0.0000000000
     35408     11803  TIP3      H1             37.1196094280      -12.6654724159        9.3421736648  W2        12170           0.0000000000
     35409     11803  TIP3      H2             37.6440194280      -11.8059624159        8.2116336648  W2        12170           0.0000000000
     35410     11804  TIP3      OH2            47.1113594280       -3.7387424159        9.6818436648  W2        12171           0.0000000000
     35411     11804  TIP3      H1             47.7309994280       -4.4152724159        9.4087636648  W2        12171           0.0000000000
     35412     11804  TIP3      H2             46.9030994280       -3.9566624159       10.5903336648  W2        12171           0.0000000000
     35413     11805  TIP3      OH2            44.6832294280       -9.3498124159       11.5743936648  W2        12172           0.0000000000
     35414     11805  TIP3      H1             44.9870194280      -10.0356724159       10.9798036648  W2        12172           0.0000000000
     35415     11805  TIP3      H2             45.4046294280       -9.2309424159       12.1921936648  W2        12172           0.0000000000
     35416     11806  TIP3      OH2            53.3462094280      -17.7482824159       12.4350136648  W2        12173           0.0000000000
     35417     11806  TIP3      H1             53.3954294280      -17.1381624159       13.1709236648  W2        12173           0.0000000000
     35418     11806  TIP3      H2             53.7717194280      -17.2871924159       11.7121236648  W2        12173           0.0000000000
     35419     11807  TIP3      OH2            47.8239294280      -14.9555724159       11.9018736648  W2        12174           0.0000000000
     35420     11807  TIP3      H1             47.9665194280      -15.9018724159       11.9220336648  W2        12174           0.0000000000
     35421     11807  TIP3      H2             47.7178294280      -14.7485924159       10.9733636648  W2        12174           0.0000000000
     35422     11808  TIP3      OH2            40.9787594280      -16.8539324159        9.1743536648  W2        12175           0.0000000000
     35423     11808  TIP3      H1             41.0218694280      -15.9940824159        8.7559836648  W2        12175           0.0000000000
     35424     11808  TIP3      H2             40.5211694280      -17.4064624159        8.5406736648  W2        12175           0.0000000000
     35425     11809  TIP3      OH2            48.7010294280      -16.7233724159        7.5751836648  W2        12176           0.0000000000
     35426     11809  TIP3      H1             49.3474594280      -17.0520524159        8.1999436648  W2        12176           0.0000000000
     35427     11809  TIP3      H2             49.2109694280      -16.2054724159        6.9523236648  W2        12176           0.0000000000
     35428     11810  TIP3      OH2            37.5989094280      -14.4573524159        9.9364936648  W2        12177           0.0000000000
     35429     11810  TIP3      H1             38.2525694280      -15.0071824159       10.3685036648  W2        12177           0.0000000000
     35430     11810  TIP3      H2             37.6228394280      -14.7314524159        9.0196936648  W2        12177           0.0000000000
     35431     11811  TIP3      OH2            42.7553594280      -12.9072224159        9.1516436648  W2        12178           0.0000000000
     35432     11811  TIP3      H1             43.3714594280      -13.4336824159        9.6610436648  W2        12178           0.0000000000
     35433     11811  TIP3      H2             42.1692394280      -13.5473524159        8.7480036648  W2        12178           0.0000000000
     35434     11812  TIP3      OH2            53.7376694280      -16.2703624159       14.6709936648  W2        12179           0.0000000000
     35435     11812  TIP3      H1             53.0491294280      -15.6122924159       14.5756536648  W2        12179           0.0000000000
     35436     11812  TIP3      H2             53.7531294280      -16.4675724159       15.6075336648  W2        12179           0.0000000000
     35437     11813  TIP3      OH2            39.7889494280      -17.9360924159       13.2484336648  W2        12180           0.0000000000
     35438     11813  TIP3      H1             39.5701194280      -17.4060324159       12.4820336648  W2        12180           0.0000000000
     35439     11813  TIP3      H2             39.1210394280      -17.7095424159       13.8955736648  W2        12180           0.0000000000
     35440     11814  TIP3      OH2            47.1579294280       -8.4359824159        6.7923436648  W2        12181           0.0000000000
     35441     11814  TIP3      H1             46.8624394280       -8.7587524159        5.9410336648  W2        12181           0.0000000000
     35442     11814  TIP3      H2             46.8337094280       -7.5363124159        6.8336036648  W2        12181           0.0000000000
     35443     11815  TIP3      OH2            42.3580894280      -10.2605224159       13.5358036648  W2        12182           0.0000000000
     35444     11815  TIP3      H1             41.6179994280       -9.6623724159       13.6393236648  W2        12182           0.0000000000
     35445     11815  TIP3      H2             43.0720394280       -9.7065624159       13.2201636648  W2        12182           0.0000000000
     35446     11816  TIP3      OH2            50.4648694280      -17.4324424159        9.5557736648  W2        12183           0.0000000000
     35447     11816  TIP3      H1             50.2496694280      -18.1981024159       10.0883736648  W2        12183           0.0000000000
     35448     11816  TIP3      H2             51.1206094280      -16.9599824159       10.0686236648  W2        12183           0.0000000000
     35449     11817  TIP3      OH2            39.3826794280      -16.0439124159       11.2006536648  W2        12184           0.0000000000
     35450     11817  TIP3      H1             39.9963094280      -15.4111524159       11.5738936648  W2        12184           0.0000000000
     35451     11817  TIP3      H2             39.8947494280      -16.5164124159       10.5443436648  W2        12184           0.0000000000
     35452     11818  TIP3      OH2            40.7655194280       -8.2962224159       14.3229536648  W2        12185           0.0000000000
     35453     11818  TIP3      H1             40.7602794280       -7.4168724159       13.9448836648  W2        12185           0.0000000000
     35454     11818  TIP3      H2             39.9119294280       -8.3798124159       14.7479436648  W2        12185           0.0000000000
     35455     11819  TIP3      OH2            36.8866094280       -8.6254324159        5.1048836648  W2        12186           0.0000000000
     35456     11819  TIP3      H1             36.6146994280       -8.3963324159        4.2161736648  W2        12186           0.0000000000
     35457     11819  TIP3      H2             36.9321794280       -7.7875524159        5.5654136648  W2        12186           0.0000000000
     35458     11820  TIP3      OH2            50.5115794280       -7.0038424159       11.8177336648  W2        12187           0.0000000000
     35459     11820  TIP3      H1             49.5699494280       -6.9454524159       11.9794236648  W2        12187           0.0000000000
     35460     11820  TIP3      H2             50.7881894280       -6.0977924159       11.6807036648  W2        12187           0.0000000000
     35461     11821  TIP3      OH2            50.8122794280      -18.7173124159       13.2351236648  W2        12188           0.0000000000
     35462     11821  TIP3      H1             50.0761994280      -18.1066024159       13.1972536648  W2        12188           0.0000000000
     35463     11821  TIP3      H2             51.4956794280      -18.3024124159       12.7087636648  W2        12188           0.0000000000
     35464     11822  TIP3      OH2            43.8154194280      -20.6305824159       10.7009236648  W2        12189           0.0000000000
     35465     11822  TIP3      H1             43.6978394280      -21.5789824159       10.6467536648  W2        12189           0.0000000000
     35466     11822  TIP3      H2             42.9604294280      -20.2979724159       10.9740336648  W2        12189           0.0000000000
     35467     11823  TIP3      OH2            48.7636994280       -5.2224924159        8.4428936648  W2        12190           0.0000000000
     35468     11823  TIP3      H1             49.1889294280       -5.9297024159        7.9578536648  W2        12190           0.0000000000
     35469     11823  TIP3      H2             49.0806994280       -4.4212224159        8.0261136648  W2        12190           0.0000000000
     35470     11824  TIP3      OH2            49.9233494280       -7.3216424159        6.9515536648  W2        12191           0.0000000000
     35471     11824  TIP3      H1             49.6658294280       -8.0116324159        6.3401436648  W2        12191           0.0000000000
     35472     11824  TIP3      H2             49.9944294280       -7.7645224159        7.7971436648  W2        12191           0.0000000000
     35473     11825  TIP3      OH2            51.6093694280       -8.7549724159       15.4289036648  W2        12192           0.0000000000
     35474     11825  TIP3      H1             51.7489994280       -9.3467224159       14.6896036648  W2        12192           0.0000000000
     35475     11825  TIP3      H2             51.7766494280       -7.8823824159       15.0727836648  W2        12192           0.0000000000
     35476     11826  TIP3      OH2            46.0819094280      -11.7930224159        5.2015036648  W2        12193           0.0000000000
     35477     11826  TIP3      H1             45.3704594280      -11.2580524159        4.8495536648  W2        12193           0.0000000000
     35478     11826  TIP3      H2             46.7728694280      -11.7378124159        4.5413936648  W2        12193           0.0000000000
     35479     11827  TIP3      OH2            46.1358294280      -13.3355924159        2.2400036648  W2        12194           0.0000000000
     35480     11827  TIP3      H1             46.8368194280      -13.3129024159        2.8914036648  W2        12194           0.0000000000
     35481     11827  TIP3      H2             46.4381194280      -13.9636224159        1.5839336648  W2        12194           0.0000000000
     35482     11828  TIP3      OH2            53.4512994280      -12.4151724159       13.4949436648  W2        12195           0.0000000000
     35483     11828  TIP3      H1             52.7987094280      -11.7206124159       13.5840336648  W2        12195           0.0000000000
     35484     11828  TIP3      H2             53.9163294280      -12.2050824159       12.6851036648  W2        12195           0.0000000000
     35485     11829  TIP3      OH2            49.4876794280      -11.5836924159        6.1530936648  W2        12196           0.0000000000
     35486     11829  TIP3      H1             48.7557794280      -11.3553224159        6.7261536648  W2        12196           0.0000000000
     35487     11829  TIP3      H2             49.9348994280      -12.2974224159        6.6078436648  W2        12196           0.0000000000
     35488     11830  TIP3      OH2            49.3850294280      -13.4094324159       15.2207936648  W2        12197           0.0000000000
     35489     11830  TIP3      H1             49.4649394280      -12.6459924159       15.7926436648  W2        12197           0.0000000000
     35490     11830  TIP3      H2             48.7837994280      -13.1301924159       14.5303036648  W2        12197           0.0000000000
     35491     11831  TIP3      OH2            41.1330494280      -10.9530724159        8.0355936648  W2        12198           0.0000000000
     35492     11831  TIP3      H1             40.8025694280      -11.3237324159        7.2172936648  W2        12198           0.0000000000
     35493     11831  TIP3      H2             41.7214594280      -11.6236724159        8.3824236648  W2        12198           0.0000000000
     35494     11832  TIP3      OH2            42.4997994280       -7.5250124159       10.7168136648  W2        12199           0.0000000000
     35495     11832  TIP3      H1             42.4049294280       -8.1037024159        9.9602736648  W2        12199           0.0000000000
     35496     11832  TIP3      H2             43.2291594280       -7.8964424159       11.2130936648  W2        12199           0.0000000000
     35497     11833  TIP3      OH2            41.4995994280      -12.1845124159       11.6690936648  W2        12200           0.0000000000
     35498     11833  TIP3      H1             42.0648494280      -12.0630924159       10.9062136648  W2        12200           0.0000000000
     35499     11833  TIP3      H2             41.8184894280      -11.5470124159       12.3079436648  W2        12200           0.0000000000
     35500     11834  TIP3      OH2            47.8088194280       -6.6813224159       12.4031436648  W2        12201           0.0000000000
     35501     11834  TIP3      H1             47.5684794280       -6.0190124159       13.0510636648  W2        12201           0.0000000000
     35502     11834  TIP3      H2             47.6106394280       -7.5158024159       12.8281036648  W2        12201           0.0000000000
     35503     11835  TIP3      OH2            42.3796694280       -7.7852424159       16.3862836648  W2        12202           0.0000000000
     35504     11835  TIP3      H1             42.0684194280       -7.0029224159       16.8416036648  W2        12202           0.0000000000
     35505     11835  TIP3      H2             41.7296894280       -7.9383324159       15.7004836648  W2        12202           0.0000000000
     35506     11836  TIP3      OH2            48.3586294280      -12.4214024159        3.8382136648  W2        12203           0.0000000000
     35507     11836  TIP3      H1             48.9381794280      -12.2713724159        4.5851036648  W2        12203           0.0000000000
     35508     11836  TIP3      H2             48.7726294280      -11.9506624159        3.1148536648  W2        12203           0.0000000000
     35509     11837  TIP3      OH2            39.2996594280      -11.5871324159       15.6148536648  W2        12204           0.0000000000
     35510     11837  TIP3      H1             39.3699794280      -10.9364524159       16.3133536648  W2        12204           0.0000000000
     35511     11837  TIP3      H2             38.4088794280      -11.4843824159       15.2799436648  W2        12204           0.0000000000
     35512     11838  TIP3      OH2            46.0851194280       -5.6845524159        7.2735236648  W2        12205           0.0000000000
     35513     11838  TIP3      H1             46.5588794280       -5.3889224159        8.0509436648  W2        12205           0.0000000000
     35514     11838  TIP3      H2             45.5220494280       -4.9463924159        7.0404836648  W2        12205           0.0000000000
     35515     11839  TIP3      OH2            40.6192594280       -5.7137424159       17.1496636648  W2        12206           0.0000000000
     35516     11839  TIP3      H1             40.6267894280       -5.8497724159       16.2022136648  W2        12206           0.0000000000
     35517     11839  TIP3      H2             39.7032994280       -5.8309324159       17.4016636648  W2        12206           0.0000000000
     35518     11840  TIP3      OH2            52.0574694280      -20.6713624159        3.6511836648  W2        12207           0.0000000000
     35519     11840  TIP3      H1             51.1575394280      -20.5324624159        3.9462436648  W2        12207           0.0000000000
     35520     11840  TIP3      H2             52.3093094280      -19.8399024159        3.2493536648  W2        12207           0.0000000000
     35521     11841  TIP3      OH2            40.1233194280      -11.8836424159        5.6248736648  W2        12208           0.0000000000
     35522     11841  TIP3      H1             39.8314494280      -11.1154724159        5.1340036648  W2        12208           0.0000000000
     35523     11841  TIP3      H2             39.4488394280      -12.5430224159        5.4620136648  W2        12208           0.0000000000
     35524     11842  TIP3      OH2            53.2466094280       -6.3051224159        2.0275736648  W2        12209           0.0000000000
     35525     11842  TIP3      H1             53.3199594280       -5.3661024159        2.1981036648  W2        12209           0.0000000000
     35526     11842  TIP3      H2             54.1521194280       -6.6102624159        1.9713036648  W2        12209           0.0000000000
     35527     11843  TIP3      OH2            36.2163294280       -9.5207224159       14.4398536648  W2        12210           0.0000000000
     35528     11843  TIP3      H1             35.7151694280       -9.5487824159       13.6248236648  W2        12210           0.0000000000
     35529     11843  TIP3      H2             36.2216994280      -10.4264024159       14.7495836648  W2        12210           0.0000000000
     35530     11844  TIP3      OH2            35.9665994280       -6.7403424159       11.3238736648  W2        12211           0.0000000000
     35531     11844  TIP3      H1             36.9126594280       -6.8846424159       11.3048236648  W2        12211           0.0000000000
     35532     11844  TIP3      H2             35.8542294280       -5.9560624159       11.8609936648  W2        12211           0.0000000000
     35533     11845  TIP3      OH2            54.1644494280       -6.0743724159       17.0062436648  W2        12212           0.0000000000
     35534     11845  TIP3      H1             54.1151294280       -7.0295624159       16.9690036648  W2        12212           0.0000000000
     35535     11845  TIP3      H2             53.3376794280       -5.8068424159       17.4076236648  W2        12212           0.0000000000
     35536     11846  TIP3      OH2            45.1428494280       -6.5004524159       15.8823836648  W2        12213           0.0000000000
     35537     11846  TIP3      H1             45.2303094280       -5.6739924159       16.3572936648  W2        12213           0.0000000000
     35538     11846  TIP3      H2             44.2793594280       -6.8300724159       16.1313136648  W2        12213           0.0000000000
     35539     11847  TIP3      OH2            45.5574294280       -2.7280824159        5.6884436648  W2        12214           0.0000000000
     35540     11847  TIP3      H1             45.4820294280       -2.8493624159        4.7419636648  W2        12214           0.0000000000
     35541     11847  TIP3      H2             45.5902994280       -1.7788124159        5.8069036648  W2        12214           0.0000000000
     35542     11848  TIP3      OH2            39.2108094280       -3.9393824159        7.4693436648  W2        12215           0.0000000000
     35543     11848  TIP3      H1             39.3628494280       -4.2873424159        8.3479936648  W2        12215           0.0000000000
     35544     11848  TIP3      H2             38.3598494280       -4.2956524159        7.2140636648  W2        12215           0.0000000000
     35545     11849  TIP3      OH2            48.6590294280       -3.5740624159        2.6906836648  W2        12216           0.0000000000
     35546     11849  TIP3      H1             49.0338694280       -4.3184524159        2.2199436648  W2        12216           0.0000000000
     35547     11849  TIP3      H2             48.6633994280       -3.8440024159        3.6090136648  W2        12216           0.0000000000
     35548     11850  TIP3      OH2            48.3278394280       -3.6483524159        5.4399036648  W2        12217           0.0000000000
     35549     11850  TIP3      H1             47.3928194280       -3.5481624159        5.6186036648  W2        12217           0.0000000000
     35550     11850  TIP3      H2             48.6080294280       -4.3577524159        6.0182236648  W2        12217           0.0000000000
     35551     11851  TIP3      OH2            51.3164294280      -14.5811224159       17.4864636648  W2        12218           0.0000000000
     35552     11851  TIP3      H1             50.9091094280      -14.1005624159       16.7657936648  W2        12218           0.0000000000
     35553     11851  TIP3      H2             51.3569994280      -15.4865224159       17.1785436648  W2        12218           0.0000000000
     35554     11852  TIP3      OH2            38.4653794280       -8.1971824159       15.4831336648  W2        12219           0.0000000000
     35555     11852  TIP3      H1             38.6815094280       -8.5586224159       16.3427136648  W2        12219           0.0000000000
     35556     11852  TIP3      H2             37.6098494280       -8.5718024159       15.2734836648  W2        12219           0.0000000000
     35557     11853  TIP3      OH2            41.0841794280      -19.7271324159       11.4785536648  W2        12220           0.0000000000
     35558     11853  TIP3      H1             40.2225494280      -19.8143124159       11.0708436648  W2        12220           0.0000000000
     35559     11853  TIP3      H2             41.0617494280      -18.8711224159       11.9063136648  W2        12220           0.0000000000
     35560     11854  TIP3      OH2            45.7469594280      -20.0050924159       14.8532536648  W2        12221           0.0000000000
     35561     11854  TIP3      H1             46.1672694280      -20.4203824159       15.6063136648  W2        12221           0.0000000000
     35562     11854  TIP3      H2             44.8139194280      -20.1837624159       14.9704536648  W2        12221           0.0000000000
     35563     11855  TIP3      OH2            49.0734494280      -16.2495724159       15.7067036648  W2        12222           0.0000000000
     35564     11855  TIP3      H1             48.5593994280      -16.3753524159       16.5043036648  W2        12222           0.0000000000
     35565     11855  TIP3      H2             48.9179194280      -15.3372624159       15.4623236648  W2        12222           0.0000000000
     35566     11856  TIP3      OH2            49.8359394280      -11.3885724159        1.4680036648  W2        12223           0.0000000000
     35567     11856  TIP3      H1             49.8780194280      -11.6111824159        0.5380036648  W2        12223           0.0000000000
     35568     11856  TIP3      H2             50.6851494280      -10.9898624159        1.6579936648  W2        12223           0.0000000000
     35569     11857  TIP3      OH2            45.4086894280      -17.5127524159        2.1383336648  W2        12224           0.0000000000
     35570     11857  TIP3      H1             45.1551694280      -17.4935924159        3.0611436648  W2        12224           0.0000000000
     35571     11857  TIP3      H2             45.1518994280      -18.3842124159        1.8369536648  W2        12224           0.0000000000
     35572     11858  TIP3      OH2            41.1751894280      -14.7616824159       12.5735736648  W2        12225           0.0000000000
     35573     11858  TIP3      H1             40.5333994280      -14.8019524159       13.2825836648  W2        12225           0.0000000000
     35574     11858  TIP3      H2             41.2123894280      -13.8352124159       12.3358736648  W2        12225           0.0000000000
     35575     11859  TIP3      OH2            41.1720994280      -14.5406724159        7.4855736648  W2        12226           0.0000000000
     35576     11859  TIP3      H1             40.2793894280      -14.8810624159        7.4269536648  W2        12226           0.0000000000
     35577     11859  TIP3      H2             41.6227594280      -14.9175824159        6.7298936648  W2        12226           0.0000000000
     35578     11860  TIP3      OH2            46.7076494280      -14.1246424159        6.3026536648  W2        12227           0.0000000000
     35579     11860  TIP3      H1             46.2986794280      -13.3097824159        6.0111336648  W2        12227           0.0000000000
     35580     11860  TIP3      H2             47.4282694280      -14.2646324159        5.6883636648  W2        12227           0.0000000000
     35581     11861  TIP3      OH2            45.8098094280      -13.9490024159       17.7907236648  W2        12228           0.0000000000
     35582     11861  TIP3      H1             45.2471894280      -14.6538424159       18.1115036648  W2        12228           0.0000000000
     35583     11861  TIP3      H2             46.6361494280      -14.0698124159       18.2584836648  W2        12228           0.0000000000
     35584     11862  TIP3      OH2            47.7124194280      -14.6786024159        9.1166236648  W2        12229           0.0000000000
     35585     11862  TIP3      H1             47.5168694280      -14.0729224159        8.4016836648  W2        12229           0.0000000000
     35586     11862  TIP3      H2             47.8936794280      -15.5120824159        8.6822536648  W2        12229           0.0000000000
     35587     11863  TIP3      OH2            38.9252394280      -14.4413324159       14.4407736648  W2        12230           0.0000000000
     35588     11863  TIP3      H1             38.8871794280      -14.0411724159       15.3094836648  W2        12230           0.0000000000
     35589     11863  TIP3      H2             38.4343494280      -15.2580924159       14.5310636648  W2        12230           0.0000000000
     35590     11864  TIP3      OH2            42.2909794280      -17.0671024159        1.2393736648  W2        12231           0.0000000000
     35591     11864  TIP3      H1             41.8600494280      -17.5120924159        1.9691136648  W2        12231           0.0000000000
     35592     11864  TIP3      H2             41.5728494280      -16.6954724159        0.7271236648  W2        12231           0.0000000000
     35593     11865  TIP3      OH2            35.5333194280      -17.3251524159        8.2912436648  W2        12232           0.0000000000
     35594     11865  TIP3      H1             36.1640894280      -17.3539424159        9.0106336648  W2        12232           0.0000000000
     35595     11865  TIP3      H2             35.9827494280      -17.7502824159        7.5608336648  W2        12232           0.0000000000
     35596     11866  TIP3      OH2            36.8075294280      -16.5789524159        3.7152836648  W2        12233           0.0000000000
     35597     11866  TIP3      H1             37.2816994280      -15.9879624159        3.1303736648  W2        12233           0.0000000000
     35598     11866  TIP3      H2             36.0901694280      -16.0486624159        4.0622936648  W2        12233           0.0000000000
     35599     11867  TIP3      OH2            46.9763394280      -13.0404724159       13.7878636648  W2        12234           0.0000000000
     35600     11867  TIP3      H1             47.2998194280      -13.6715024159       13.1449136648  W2        12234           0.0000000000
     35601     11867  TIP3      H2             46.5362694280      -13.5752524159       14.4486036648  W2        12234           0.0000000000
     35602     11868  TIP3      OH2            43.7536294280      -17.1129224159        8.5719836648  W2        12235           0.0000000000
     35603     11868  TIP3      H1             42.8427394280      -17.0562424159        8.8605836648  W2        12235           0.0000000000
     35604     11868  TIP3      H2             44.2589194280      -17.1733724159        9.3827036648  W2        12235           0.0000000000
     35605     11869  TIP3      OH2            38.5819694280      -15.4842924159        7.3987436648  W2        12236           0.0000000000
     35606     11869  TIP3      H1             37.6927694280      -15.3847424159        7.0587036648  W2        12236           0.0000000000
     35607     11869  TIP3      H2             38.8784594280      -16.3259924159        7.0525336648  W2        12236           0.0000000000
     35608     11870  TIP3      OH2            42.2351494280      -15.4840324159        5.0552036648  W2        12237           0.0000000000
     35609     11870  TIP3      H1             43.1666994280      -15.3550324159        5.2335136648  W2        12237           0.0000000000
     35610     11870  TIP3      H2             42.0201794280      -14.8146024159        4.4056736648  W2        12237           0.0000000000
     35611     11871  TIP3      OH2            48.1588194280      -17.8782924159       11.8361636648  W2        12238           0.0000000000
     35612     11871  TIP3      H1             47.4819794280      -17.7469824159       12.5001336648  W2        12238           0.0000000000
     35613     11871  TIP3      H2             47.6733094280      -18.0333424159       11.0259336648  W2        12238           0.0000000000
     35614     11872  TIP3      OH2            40.9091694280      -14.2898124159        2.6218136648  W2        12239           0.0000000000
     35615     11872  TIP3      H1             40.3666794280      -14.6694324159        1.9305736648  W2        12239           0.0000000000
     35616     11872  TIP3      H2             41.7426594280      -14.0953424159        2.1932236648  W2        12239           0.0000000000
     35617     11873  TIP3      OH2            39.0443094280       -9.7326224159       17.7209736648  W2        12241           0.0000000000
     35618     11873  TIP3      H1             39.7765494280       -9.4780324159       18.2824236648  W2        12241           0.0000000000
     35619     11873  TIP3      H2             38.2641794280       -9.5280824159       18.2365136648  W2        12241           0.0000000000
     35620     11874  TIP3      OH2            45.0735994280      -14.3256224159       10.4589436648  W2        12242           0.0000000000
     35621     11874  TIP3      H1             45.6379394280      -14.8719624159        9.9119036648  W2        12242           0.0000000000
     35622     11874  TIP3      H2             44.9259394280      -14.8474324159       11.2477036648  W2        12242           0.0000000000
     35623     11875  TIP3      OH2            40.0755694280      -18.1890124159        6.8774236648  W2        12243           0.0000000000
     35624     11875  TIP3      H1             39.7585194280      -19.0914824159        6.8419636648  W2        12243           0.0000000000
     35625     11875  TIP3      H2             40.8569794280      -18.1872724159        6.3245836648  W2        12243           0.0000000000
     35626     11876  TIP3      OH2            43.7001894280      -15.9370124159       12.8729836648  W2        12244           0.0000000000
     35627     11876  TIP3      H1             42.8647194280      -15.4830624159       12.9832236648  W2        12244           0.0000000000
     35628     11876  TIP3      H2             44.2242494280      -15.6611624159       13.6249736648  W2        12244           0.0000000000
     35629     11877  TIP3      OH2            44.2444494280       -9.7242424159        4.5576236648  W2        12245           0.0000000000
     35630     11877  TIP3      H1             43.4995494280      -10.2317124159        4.2354136648  W2        12245           0.0000000000
     35631     11877  TIP3      H2             44.1101694280       -9.6754424159        5.5041036648  W2        12245           0.0000000000
     35632     11878  TIP3      OH2            51.3943394280      -10.5914224159       13.3443836648  W2        12246           0.0000000000
     35633     11878  TIP3      H1             52.0362194280      -10.1347924159       12.8006036648  W2        12246           0.0000000000
     35634     11878  TIP3      H2             50.5640294280      -10.4781824159       12.8817936648  W2        12246           0.0000000000
     35635     11879  TIP3      OH2            48.1421294280      -16.9102524159        2.7568836648  W2        12247           0.0000000000
     35636     11879  TIP3      H1             47.2035494280      -16.7986924159        2.6057636648  W2        12247           0.0000000000
     35637     11879  TIP3      H2             48.4393394280      -16.0535624159        3.0634536648  W2        12247           0.0000000000
     35638     11880  TIP3      OH2            45.7636594280       -9.5399124159       15.7945336648  W2        12248           0.0000000000
     35639     11880  TIP3      H1             45.4182694280       -9.9216724159       16.6014936648  W2        12248           0.0000000000
     35640     11880  TIP3      H2             45.5636694280       -8.6065524159       15.8658236648  W2        12248           0.0000000000
     35641     11881  TIP3      OH2            48.8604794280      -15.0429824159        4.4176236648  W2        12249           0.0000000000
     35642     11881  TIP3      H1             49.7523794280      -15.1804824159        4.7367436648  W2        12249           0.0000000000
     35643     11881  TIP3      H2             48.9168394280      -14.2523724159        3.8809736648  W2        12249           0.0000000000
     35644     11882  TIP3      OH2            39.3692794280      -10.4292424159       10.3274136648  W2        12250           0.0000000000
     35645     11882  TIP3      H1             40.1139994280      -10.4316724159        9.7260636648  W2        12250           0.0000000000
     35646     11882  TIP3      H2             39.4469394280      -11.2528624159       10.8089236648  W2        12250           0.0000000000
     35647     11883  TIP3      OH2            46.3698594280       -8.2658124159        3.5830836648  W2        12251           0.0000000000
     35648     11883  TIP3      H1             46.0746994280       -7.4390224159        3.9645636648  W2        12251           0.0000000000
     35649     11883  TIP3      H2             45.6668594280       -8.8851224159        3.7792236648  W2        12251           0.0000000000
     35650     11884  TIP3      OH2            36.3772494280      -11.9685524159       15.6422636648  W2        12252           0.0000000000
     35651     11884  TIP3      H1             36.6001094280      -12.3865924159       16.4740136648  W2        12252           0.0000000000
     35652     11884  TIP3      H2             35.7752594280      -12.5810524159       15.2195436648  W2        12252           0.0000000000
     35653     11885  TIP3      OH2            48.0140194280       -7.0783624159       15.7450336648  W2        12254           0.0000000000
     35654     11885  TIP3      H1             47.1134494280       -6.8951024159       15.4774236648  W2        12254           0.0000000000
     35655     11885  TIP3      H2             48.0481294280       -6.8194324159       16.6659136648  W2        12254           0.0000000000
     35656     11886  TIP3      OH2            53.7453494280      -14.8335724159        4.1122936648  W2        12255           0.0000000000
     35657     11886  TIP3      H1             53.1909794280      -15.2297724159        3.4400436648  W2        12255           0.0000000000
     35658     11886  TIP3      H2             53.8457094280      -13.9230524159        3.8346236648  W2        12255           0.0000000000
     35659     11887  TIP3      OH2            53.7085494280       -9.0334024159       16.9494436648  W2        12256           0.0000000000
     35660     11887  TIP3      H1             52.8573994280       -8.7950224159       16.5820836648  W2        12256           0.0000000000
     35661     11887  TIP3      H2             54.2988894280       -9.0500824159       16.1961536648  W2        12256           0.0000000000
     35662     11888  TIP3      OH2            52.0405194280       -6.0475324159        4.5775036648  W2        12257           0.0000000000
     35663     11888  TIP3      H1             51.6676294280       -6.8731524159        4.8865636648  W2        12257           0.0000000000
     35664     11888  TIP3      H2             52.3178694280       -6.2305924159        3.6798436648  W2        12257           0.0000000000
     35665     11889  TIP3      OH2            49.2009094280      -11.2395824159       11.5986936648  W2        12258           0.0000000000
     35666     11889  TIP3      H1             48.2725994280      -11.4713924159       11.5716236648  W2        12258           0.0000000000
     35667     11889  TIP3      H2             49.6520194280      -12.0166024159       11.2685736648  W2        12258           0.0000000000
     35668     11890  TIP3      OH2            41.7442194280       -6.9114224159        7.7315636648  W2        12259           0.0000000000
     35669     11890  TIP3      H1             42.2714394280       -6.1379824159        7.5314436648  W2        12259           0.0000000000
     35670     11890  TIP3      H2             40.8640694280       -6.6865024159        7.4299636648  W2        12259           0.0000000000
     35671     11891  TIP3      OH2            37.4989894280      -12.0490124159        2.3188036648  W2        12260           0.0000000000
     35672     11891  TIP3      H1             38.1149794280      -11.4222924159        2.6982836648  W2        12260           0.0000000000
     35673     11891  TIP3      H2             36.6372494280      -11.7330324159        2.5904536648  W2        12260           0.0000000000
     35674     11892  TIP3      OH2            43.1714494280       -9.2484324159        7.3079936648  W2        12261           0.0000000000
     35675     11892  TIP3      H1             42.9304494280       -8.3229924159        7.3495236648  W2        12261           0.0000000000
     35676     11892  TIP3      H2             42.4308094280       -9.7073024159        7.7043836648  W2        12261           0.0000000000
     35677     11893  TIP3      OH2            43.6861094280       -5.0990724159       13.6231036648  W2        12262           0.0000000000
     35678     11893  TIP3      H1             44.0485794280       -4.2445124159       13.3895436648  W2        12262           0.0000000000
     35679     11893  TIP3      H2             44.2176294280       -5.3909124159       14.3637336648  W2        12262           0.0000000000
     35680     11894  TIP3      OH2            41.8545294280       -4.2266724159        6.8532136648  W2        12263           0.0000000000
     35681     11894  TIP3      H1             40.9045794280       -4.1209324159        6.9045436648  W2        12263           0.0000000000
     35682     11894  TIP3      H2             42.2063394280       -3.4059324159        7.1979636648  W2        12263           0.0000000000
     35683     11895  TIP3      OH2            47.2301894280       -9.0000024159       13.3236636648  W2        12264           0.0000000000
     35684     11895  TIP3      H1             46.8043194280       -9.2278324159       14.1500636648  W2        12264           0.0000000000
     35685     11895  TIP3      H2             47.8107694280       -9.7388224159       13.1411936648  W2        12264           0.0000000000
     35686     11896  TIP3      OH2            49.4330794280       -8.0709524159        2.3975636648  W2        12265           0.0000000000
     35687     11896  TIP3      H1             49.7863894280       -8.4509724159        3.2019136648  W2        12265           0.0000000000
     35688     11896  TIP3      H2             48.4844294280       -8.1644724159        2.4844936648  W2        12265           0.0000000000
     35689     11897  TIP3      OH2            49.8886094280       -4.4480524159       15.7931436648  W2        12266           0.0000000000
     35690     11897  TIP3      H1             49.2869294280       -5.0037624159       15.2977736648  W2        12266           0.0000000000
     35691     11897  TIP3      H2             50.1699794280       -3.7810724159       15.1668836648  W2        12266           0.0000000000
     35692     11898  TIP3      OH2            53.9365194280       -3.5917024159        2.5985836648  W2        12267           0.0000000000
     35693     11898  TIP3      H1             54.6803094280       -3.0056524159        2.4587436648  W2        12267           0.0000000000
     35694     11898  TIP3      H2             53.2423294280       -3.0231224159        2.9318236648  W2        12267           0.0000000000
     35695     11899  TIP3      OH2            38.0111994280      -17.2152824159       15.2004036648  W2        12268           0.0000000000
     35696     11899  TIP3      H1             37.1184294280      -16.8767424159       15.1328036648  W2        12268           0.0000000000
     35697     11899  TIP3      H2             37.9124794280      -18.0706724159       15.6184836648  W2        12268           0.0000000000
     35698     11900  TIP3      OH2            50.2990094280       -9.3987524159        4.6243536648  W2        12269           0.0000000000
     35699     11900  TIP3      H1             50.0217694280      -10.1268224159        5.1804636648  W2        12269           0.0000000000
     35700     11900  TIP3      H2             51.2263094280       -9.2795524159        4.8296136648  W2        12269           0.0000000000
     35701     11901  TIP3      OH2            37.6623994280       -5.4108424159       13.6353436648  W2        12270           0.0000000000
     35702     11901  TIP3      H1             37.8794294280       -6.3426024159       13.6043136648  W2        12270           0.0000000000
     35703     11901  TIP3      H2             37.9087494280       -5.1363424159       14.5186236648  W2        12270           0.0000000000
     35704     11902  TIP3      OH2            43.5238594280       -6.9593424159        0.8445636648  W2        12271           0.0000000000
     35705     11902  TIP3      H1             43.7628394280       -7.7075324159        0.2974536648  W2        12271           0.0000000000
     35706     11902  TIP3      H2             43.2549894280       -7.3471724159        1.6773436648  W2        12271           0.0000000000
     35707     11903  TIP3      OH2            42.4609194280       -7.3889624159        3.3008236648  W2        12272           0.0000000000
     35708     11903  TIP3      H1             42.6077194280       -7.9089824159        4.0909136648  W2        12272           0.0000000000
     35709     11903  TIP3      H2             42.4580894280       -6.4822024159        3.6074136648  W2        12272           0.0000000000
     35710     11904  TIP3      OH2            38.9140294280      -10.1366324159        3.8113636648  W2        12273           0.0000000000
     35711     11904  TIP3      H1             38.2279594280       -9.7843824159        4.3783336648  W2        12273           0.0000000000
     35712     11904  TIP3      H2             39.4368194280       -9.3736724159        3.5647936648  W2        12273           0.0000000000
     35713     11905  TIP3      OH2            46.7455394280      -17.4742524159       14.0902636648  W2        12274           0.0000000000
     35714     11905  TIP3      H1             47.4443294280      -17.4003824159       14.7402336648  W2        12274           0.0000000000
     35715     11905  TIP3      H2             46.3646794280      -18.3387524159       14.2445536648  W2        12274           0.0000000000
     35716     11906  TIP3      OH2            47.5300294280      -17.8220824159        5.1874936648  W2        12275           0.0000000000
     35717     11906  TIP3      H1             47.7498594280      -17.3505424159        4.3840336648  W2        12275           0.0000000000
     35718     11906  TIP3      H2             48.0884294280      -17.4278224159        5.8575536648  W2        12275           0.0000000000
     35719     11907  TIP3      OH2            45.1986394280       -5.6916024159        4.0502436648  W2        12276           0.0000000000
     35720     11907  TIP3      H1             44.3822494280       -5.1946324159        4.1026736648  W2        12276           0.0000000000
     35721     11907  TIP3      H2             45.7282694280       -5.2162524159        3.4101236648  W2        12276           0.0000000000
     35722     11908  TIP3      OH2            44.7300194280      -16.0942024159        6.0223336648  W2        12277           0.0000000000
     35723     11908  TIP3      H1             45.5422794280      -15.5898824159        6.0685036648  W2        12277           0.0000000000
     35724     11908  TIP3      H2             44.4853194280      -16.2392324159        6.9362936648  W2        12277           0.0000000000
     35725     11909  TIP3      OH2            45.2656594280      -15.1079324159       15.2069936648  W2        12278           0.0000000000
     35726     11909  TIP3      H1             45.3846894280      -14.5343924159       15.9640336648  W2        12278           0.0000000000
     35727     11909  TIP3      H2             45.9211194280      -15.7959924159       15.3217736648  W2        12278           0.0000000000
     35728     11910  TIP3      OH2            45.6136894280      -19.0129024159        6.9604436648  W2        12279           0.0000000000
     35729     11910  TIP3      H1             45.2670394280      -18.3958424159        7.6048736648  W2        12279           0.0000000000
     35730     11910  TIP3      H2             46.2723794280      -18.5123324159        6.4789936648  W2        12279           0.0000000000
     35731     11911  TIP3      OH2            42.5369494280       -4.6478824159        4.0319336648  W2        12280           0.0000000000
     35732     11911  TIP3      H1             42.6978194280       -3.8481324159        3.5311936648  W2        12280           0.0000000000
     35733     11911  TIP3      H2             42.3397294280       -4.3412824159        4.9169936648  W2        12280           0.0000000000
     35734     11912  TIP3      OH2            41.2713894280      -17.9499624159        3.6476936648  W2        12281           0.0000000000
     35735     11912  TIP3      H1             41.1878694280      -17.0616524159        3.9943336648  W2        12281           0.0000000000
     35736     11912  TIP3      H2             42.1614194280      -18.2152924159        3.8793736648  W2        12281           0.0000000000
     35737     11913  TIP3      OH2            51.4702394280      -17.2009024159       16.0419636648  W2        12282           0.0000000000
     35738     11913  TIP3      H1             50.5538194280      -16.9387324159       15.9543336648  W2        12282           0.0000000000
     35739     11913  TIP3      H2             51.8057394280      -17.2040024159       15.1454936648  W2        12282           0.0000000000
     35740     11914  TIP3      OH2            50.0723394280      -13.4508024159       10.1376936648  W2        12283           0.0000000000
     35741     11914  TIP3      H1             49.2747794280      -13.8657824159        9.8091936648  W2        12283           0.0000000000
     35742     11914  TIP3      H2             50.5174494280      -14.1414324159       10.6287436648  W2        12283           0.0000000000
     35743     11915  TIP3      OH2            39.5299194280       -7.5227424159        2.7081436648  W2        12284           0.0000000000
     35744     11915  TIP3      H1             40.1220694280       -6.8232624159        2.9843836648  W2        12284           0.0000000000
     35745     11915  TIP3      H2             39.9892194280       -7.9557924159        1.9886036648  W2        12284           0.0000000000
     35746     11916  TIP3      OH2            37.8458394280      -14.8584424159        1.8240836648  W2        12285           0.0000000000
     35747     11916  TIP3      H1             37.8010994280      -13.9191324159        2.0027836648  W2        12285           0.0000000000
     35748     11916  TIP3      H2             36.9581594280      -15.0939524159        1.5542936648  W2        12285           0.0000000000
     35749     11917  TIP3      OH2            51.1587994280       -4.1945524159       11.7600436648  W2        12286           0.0000000000
     35750     11917  TIP3      H1             51.0032294280       -3.5161124159       11.1029736648  W2        12286           0.0000000000
     35751     11917  TIP3      H2             52.0914394280       -4.1226224159       11.9631036648  W2        12286           0.0000000000
     35752     11918  TIP3      OH2            38.6540394280      -20.0767824159       10.4971836648  W2        12287           0.0000000000
     35753     11918  TIP3      H1             38.4250194280      -20.0175324159        9.5696836648  W2        12287           0.0000000000
     35754     11918  TIP3      H2             38.2113794280      -20.8682324159       10.8035936648  W2        12287           0.0000000000
     35755     11919  TIP3      OH2            37.5843694280       -6.1360724159        6.6577636648  W2        12288           0.0000000000
     35756     11919  TIP3      H1             36.7522294280       -5.6638024159        6.6849036648  W2        12288           0.0000000000
     35757     11919  TIP3      H2             38.1301994280       -5.6263124159        6.0590736648  W2        12288           0.0000000000
     35758     11920  TIP3      OH2            45.5620394280       -5.0962024159        0.9831636648  W2        12291           0.0000000000
     35759     11920  TIP3      H1             44.9181394280       -5.7273424159        1.3045336648  W2        12291           0.0000000000
     35760     11920  TIP3      H2             46.3238694280       -5.6274024159        0.7515136648  W2        12291           0.0000000000
     35761     11921  TIP3      OH2            50.1663294280       -5.2792124159        1.2169636648  W2        12293           0.0000000000
     35762     11921  TIP3      H1             50.4493694280       -6.0736924159        1.6696536648  W2        12293           0.0000000000
     35763     11921  TIP3      H2             50.9061194280       -5.0461124159        0.6560736648  W2        12293           0.0000000000
     35764     11922  TIP3      OH2            41.1210594280       -9.3697224159        1.0744536648  W2        12295           0.0000000000
     35765     11922  TIP3      H1             41.1854694280      -10.1637624159        1.6050936648  W2        12295           0.0000000000
     35766     11922  TIP3      H2             41.7739794280       -9.4884424159        0.3846536648  W2        12295           0.0000000000
     35767     11923  TIP3      OH2            46.4733994280       -8.3225524159        0.8102536648  W2        12297           0.0000000000
     35768     11923  TIP3      H1             46.2048094280       -8.1423424159        1.7111436648  W2        12297           0.0000000000
     35769     11923  TIP3      H2             46.2669594280       -9.2479324159        0.6788336648  W2        12297           0.0000000000
     35770     11924  TIP3      OH2            49.1698194280       -9.8277524159       15.7578636648  W2        12298           0.0000000000
     35771     11924  TIP3      H1             49.9152994280       -9.2393824159       15.6382636648  W2        12298           0.0000000000
     35772     11924  TIP3      H2             48.4124994280       -9.2457824159       15.8211736648  W2        12298           0.0000000000
     35773     11925  TIP3      OH2            42.2704394280      -11.3971024159        3.3802536648  W2        12300           0.0000000000
     35774     11925  TIP3      H1             41.8106394280      -11.8812724159        4.0661036648  W2        12300           0.0000000000
     35775     11925  TIP3      H2             42.5253094280      -12.0655624159        2.7443036648  W2        12300           0.0000000000
     35776     11926  TIP3      OH2            41.5593694280      -13.5043924159       15.7362136648  W2        12301           0.0000000000
     35777     11926  TIP3      H1             40.9409794280      -12.8297324159       16.0166836648  W2        12301           0.0000000000
     35778     11926  TIP3      H2             41.9034894280      -13.1830024159       14.9028336648  W2        12301           0.0000000000
     35779     11927  TIP3      OH2            43.3414794280      -13.1539224159        1.6425736648  W2        12302           0.0000000000
     35780     11927  TIP3      H1             43.1609794280      -13.3088024159        0.7154036648  W2        12302           0.0000000000
     35781     11927  TIP3      H2             44.2915294280      -13.0460524159        1.6873636648  W2        12302           0.0000000000
     35782     11928  TIP3      OH2            52.7313094280      -10.7995024159        1.0883836648  W2        12304           0.0000000000
     35783     11928  TIP3      H1             52.4577894280      -11.2239524159        0.2752136648  W2        12304           0.0000000000
     35784     11928  TIP3      H2             52.7707194280       -9.8680524159        0.8714236648  W2        12304           0.0000000000
     35785     11929  TIP3      OH2            41.8987394280      -16.1493124159       16.8185236648  W2        12305           0.0000000000
     35786     11929  TIP3      H1             42.0488294280      -16.8781824159       16.2164936648  W2        12305           0.0000000000
     35787     11929  TIP3      H2             41.9009794280      -15.3721424159       16.2597436648  W2        12305           0.0000000000
     35788     11930  TIP3      OH2            42.3113094280      -17.7797324159       14.3112636648  W2        12306           0.0000000000
     35789     11930  TIP3      H1             42.8470594280      -17.3280624159       13.6591936648  W2        12306           0.0000000000
     35790     11930  TIP3      H2             41.4592694280      -17.8877524159       13.8886736648  W2        12306           0.0000000000
     35791     11931  TIP3      OH2            43.8931494280      -12.3401124159       14.5507836648  W2        12307           0.0000000000
     35792     11931  TIP3      H1             44.6436294280      -12.4963624159       13.9775636648  W2        12307           0.0000000000
     35793     11931  TIP3      H2             43.5539794280      -11.4884524159       14.2753336648  W2        12307           0.0000000000
     35794     11932  TIP3      OH2            49.6254894280      -11.7364124159       17.6565836648  W2        12309           0.0000000000
     35795     11932  TIP3      H1             49.3439894280      -11.0269524159       17.0789636648  W2        12309           0.0000000000
     35796     11932  TIP3      H2             50.5679194280      -11.8091124159       17.5057036648  W2        12309           0.0000000000
     35797     11933  TIP3      OH2            43.1168594280      -20.3231624159       14.7426236648  W2        12311           0.0000000000
     35798     11933  TIP3      H1             43.0188194280      -19.3768424159       14.6372436648  W2        12311           0.0000000000
     35799     11933  TIP3      H2             42.3744794280      -20.6957824159       14.2669736648  W2        12311           0.0000000000
     35800     11934  TIP3      OH2            47.0965694280      -16.8742724159       17.3818136648  W2        12313           0.0000000000
     35801     11934  TIP3      H1             46.1491094280      -16.8423024159       17.5141436648  W2        12313           0.0000000000
     35802     11934  TIP3      H2             47.4092394280      -17.4995624159       18.0356336648  W2        12313           0.0000000000
     35803     11935  TIP3      OH2            43.3386694280      -21.0294224159       17.4139036648  W2        12316           0.0000000000
     35804     11935  TIP3      H1             44.0505094280      -21.6692024159       17.3998136648  W2        12316           0.0000000000
     35805     11935  TIP3      H2             43.2377094280      -20.7625924159       16.5002136648  W2        12316           0.0000000000
     35806     11936  TIP3      OH2            43.2386494280       -2.4635524159        2.6439336648  W2        12318           0.0000000000
     35807     11936  TIP3      H1             44.1717194280       -2.3056824159        2.7877736648  W2        12318           0.0000000000
     35808     11936  TIP3      H2             42.9745294280       -1.7882524159        2.0190836648  W2        12318           0.0000000000
     35809     11937  TIP3      OH2            36.8071394280       -7.8271724159        2.1267436648  W2        12319           0.0000000000
     35810     11937  TIP3      H1             37.7210594280       -7.7482824159        2.4001336648  W2        12319           0.0000000000
     35811     11937  TIP3      H2             36.8144494280       -8.5142124159        1.4603036648  W2        12319           0.0000000000
     35812     11938  TIP3      OH2            35.4561994280       -2.4343224159        7.2041336648  W2        12320           0.0000000000
     35813     11938  TIP3      H1             34.8089094280       -2.8961524159        6.6712536648  W2        12320           0.0000000000
     35814     11938  TIP3      H2             35.8106594280       -3.1059924159        7.7867536648  W2        12320           0.0000000000
     35815     11939  TIP3      OH2            36.3261194280       -4.3536224159        9.0087536648  W2        12321           0.0000000000
     35816     11939  TIP3      H1             35.9917994280       -5.2338924159        9.1807736648  W2        12321           0.0000000000
     35817     11939  TIP3      H2             36.5483594280       -4.0081224159        9.8733136648  W2        12321           0.0000000000
     35818     11940  TIP3      OH2            53.8745994280       -3.5439824159       11.9892336648  W2        12322           0.0000000000
     35819     11940  TIP3      H1             53.8532694280       -3.3591424159       12.9281736648  W2        12322           0.0000000000
     35820     11940  TIP3      H2             54.5652194280       -2.9755824159       11.6483736648  W2        12322           0.0000000000
     35821     11941  TIP3      OH2            53.4378894280       -3.9768724159       14.9111436648  W2        12323           0.0000000000
     35822     11941  TIP3      H1             52.9507594280       -4.7124624159       14.5398836648  W2        12323           0.0000000000
     35823     11941  TIP3      H2             53.9871594280       -4.3704824159       15.5890836648  W2        12323           0.0000000000
     35824     11942  TIP3      OH2            53.1895894280       -9.9306924159        5.0634236648  W2        12325           0.0000000000
     35825     11942  TIP3      H1             54.0397294280       -9.5096024159        5.1905836648  W2        12325           0.0000000000
     35826     11942  TIP3      H2             53.1950994280      -10.6706824159        5.6705636648  W2        12325           0.0000000000
     35827     11943  TIP3      OH2            53.5841494280      -11.8769524159        6.8869936648  W2        12326           0.0000000000
     35828     11943  TIP3      H1             52.8576094280      -12.3566924159        7.2847536648  W2        12326           0.0000000000
     35829     11943  TIP3      H2             54.1654794280      -11.6714824159        7.6191536648  W2        12326           0.0000000000
     35830     11944  TIP3      OH2            53.3432694280       -9.0922024159       11.8347536648  W2        12327           0.0000000000
     35831     11944  TIP3      H1             54.1766894280       -9.4702024159       11.5541136648  W2        12327           0.0000000000
     35832     11944  TIP3      H2             53.4552994280       -8.1490824159       11.7156636648  W2        12327           0.0000000000
     35833     11945  TIP3      OH2            51.8294994280       -6.2144524159       14.1415936648  W2        12328           0.0000000000
     35834     11945  TIP3      H1             51.1820294280       -5.8893024159       14.7671136648  W2        12328           0.0000000000
     35835     11945  TIP3      H2             51.3118994280       -6.6546824159       13.4674236648  W2        12328           0.0000000000
     35836     11946  TIP3      OH2            53.8524594280      -11.9761024159        3.2781236648  W2        12329           0.0000000000
     35837     11946  TIP3      H1             53.3305694280      -11.6196924159        2.5592136648  W2        12329           0.0000000000
     35838     11946  TIP3      H2             53.8193794280      -11.3013224159        3.9562136648  W2        12329           0.0000000000
     35839     11947  TIP3      OH2            52.2013594280      -14.7365424159        1.8288336648  W2        12330           0.0000000000
     35840     11947  TIP3      H1             52.2977994280      -14.0698424159        1.1488036648  W2        12330           0.0000000000
     35841     11947  TIP3      H2             52.0613194280      -15.5519124159        1.3473836648  W2        12330           0.0000000000
     35842     11948  TIP3      OH2            51.3708294280      -13.3563024159        7.4498636648  W2        12331           0.0000000000
     35843     11948  TIP3      H1             51.2207094280      -14.3014424159        7.4296436648  W2        12331           0.0000000000
     35844     11948  TIP3      H2             51.0172794280      -13.0751624159        8.2937736648  W2        12331           0.0000000000
     35845     11949  TIP3      OH2            36.4060694280      -11.2780824159       11.4602436648  W2        12332           0.0000000000
     35846     11949  TIP3      H1             36.5903594280      -11.3599124159       10.5245336648  W2        12332           0.0000000000
     35847     11949  TIP3      H2             37.2553594280      -11.4023824159       11.8838836648  W2        12332           0.0000000000
     35848     11950  TIP3      OH2            52.2271194280      -11.3859724159       17.0886936648  W2        12333           0.0000000000
     35849     11950  TIP3      H1             52.8098494280      -12.1207424159       17.2804136648  W2        12333           0.0000000000
     35850     11950  TIP3      H2             52.7910494280      -10.6139424159       17.1352736648  W2        12333           0.0000000000
     35851     11951  TIP3      OH2            53.7238294280      -13.4833924159       17.7732336648  W2        12334           0.0000000000
     35852     11951  TIP3      H1             52.8604994280      -13.8621824159       17.6077036648  W2        12334           0.0000000000
     35853     11951  TIP3      H2             54.3281994280      -14.2219124159       17.6988136648  W2        12334           0.0000000000
     35854     11952  TIP3      OH2            51.4487394280      -17.3285624159        0.9463836648  W2        12335           0.0000000000
     35855     11952  TIP3      H1             52.0593194280      -17.6998824159        1.5832036648  W2        12335           0.0000000000
     35856     11952  TIP3      H2             50.6118894280      -17.7498724159        1.1423836648  W2        12335           0.0000000000
     35857     11953  TIP3      OH2            51.0813094280      -15.7737224159        5.9123736648  W2        12336           0.0000000000
     35858     11953  TIP3      H1             51.3610194280      -16.6806824159        6.0365436648  W2        12336           0.0000000000
     35859     11953  TIP3      H2             51.8404794280      -15.3395724159        5.5232936648  W2        12336           0.0000000000
     35860     11954  TIP3      OH2            51.6931394280      -15.1919824159       11.3482636648  W2        12337           0.0000000000
     35861     11954  TIP3      H1             52.6259394280      -14.9799924159       11.3138636648  W2        12337           0.0000000000
     35862     11954  TIP3      H2             51.4578894280      -15.0907724159       12.2705636648  W2        12337           0.0000000000
     35863     11955  TIP3      OH2            51.7223294280      -14.4554524159       14.1242036648  W2        12338           0.0000000000
     35864     11955  TIP3      H1             50.8794594280      -14.1874124159       14.4901836648  W2        12338           0.0000000000
     35865     11955  TIP3      H2             52.1647594280      -13.6332624159       13.9133136648  W2        12338           0.0000000000
     35866     11956  TIP3      OH2            36.0035494280      -16.0075824159       17.6011236648  W2        12339           0.0000000000
     35867     11956  TIP3      H1             36.9230394280      -16.1297524159       17.8374336648  W2        12339           0.0000000000
     35868     11956  TIP3      H2             35.5539994280      -16.7576124159       17.9904736648  W2        12339           0.0000000000
     35869     11957  TIP3      OH2            51.6947894280      -18.5107924159        5.9605736648  W2        12341           0.0000000000
     35870     11957  TIP3      H1             51.8772894280      -18.9596424159        6.7860736648  W2        12341           0.0000000000
     35871     11957  TIP3      H2             51.0950794280      -19.0953524159        5.4970336648  W2        12341           0.0000000000
     35872     11958  TIP3      OH2            37.2247994280      -17.6954224159       10.4924136648  W2        12342           0.0000000000
     35873     11958  TIP3      H1             37.6699594280      -18.4871724159       10.7943836648  W2        12342           0.0000000000
     35874     11958  TIP3      H2             37.6910994280      -16.9789024159       10.9229736648  W2        12342           0.0000000000
     35875     11959  TIP3      OH2            35.5288294280      -14.6961224159       11.5614336648  W2        12343           0.0000000000
     35876     11959  TIP3      H1             36.0208094280      -14.9170724159       10.7706336648  W2        12343           0.0000000000
     35877     11959  TIP3      H2             35.8909194280      -13.8557824159       11.8423836648  W2        12343           0.0000000000
     35878     11960  TIP3      OH2            53.5614094280      -18.4429824159        2.4886036648  W2        12345           0.0000000000
     35879     11960  TIP3      H1             53.9736694280      -19.1644124159        2.0134036648  W2        12345           0.0000000000
     35880     11960  TIP3      H2             54.2430594280      -17.7735224159        2.5470336648  W2        12345           0.0000000000
     35881     11961  TIP3      OH2            35.8424794280      -18.4382124159        5.6156736648  W2        12346           0.0000000000
     35882     11961  TIP3      H1             34.9173194280      -18.2295524159        5.4862236648  W2        12346           0.0000000000
     35883     11961  TIP3      H2             36.2964694280      -17.9541324159        4.9259036648  W2        12346           0.0000000000
     35884     11962  TIP3      OH2            50.6131994280       -3.4540424159        7.5614136648  W2        12347           0.0000000000
     35885     11962  TIP3      H1             51.2654894280       -3.8018324159        6.9533236648  W2        12347           0.0000000000
     35886     11962  TIP3      H2             51.1235794280       -2.9657224159        8.2073836648  W2        12347           0.0000000000
     35887     11963  TIP3      OH2            35.8060194280      -19.7003124159       13.9599236648  W2        12348           0.0000000000
     35888     11963  TIP3      H1             35.1410694280      -19.9462824159       14.6030136648  W2        12348           0.0000000000
     35889     11963  TIP3      H2             35.3631494280      -19.0782724159       13.3827236648  W2        12348           0.0000000000
     35890     11964  TIP3      OH2            40.9522394280       -5.5507824159       14.3629036648  W2        12350           0.0000000000
     35891     11964  TIP3      H1             40.5273494280       -4.7409324159       14.0803636648  W2        12350           0.0000000000
     35892     11964  TIP3      H2             41.8565194280       -5.4653724159       14.0608836648  W2        12350           0.0000000000
     35893     11965  TIP3      OH2            45.2633794280       -4.1517824159       17.3222736648  W2        12351           0.0000000000
     35894     11965  TIP3      H1             45.4481294280       -4.4851724159       18.2003036648  W2        12351           0.0000000000
     35895     11965  TIP3      H2             46.1098294280       -3.8419224159       17.0001936648  W2        12351           0.0000000000
     35896     11966  TIP3      OH2            47.6084194280       -2.8658924159       16.5664136648  W2        12352           0.0000000000
     35897     11966  TIP3      H1             48.2853094280       -3.4986624159       16.3263336648  W2        12352           0.0000000000
     35898     11966  TIP3      H2             47.9302994280       -2.4648424159       17.3737436648  W2        12352           0.0000000000
     35899     11967  TIP3      OH2            52.5257994280      -20.2763424159       15.6459136648  W2        12353           0.0000000000
     35900     11967  TIP3      H1             51.7131494280      -19.9513124159       15.2583836648  W2        12353           0.0000000000
     35901     11967  TIP3      H2             52.7586494280      -21.0364924159       15.1128236648  W2        12353           0.0000000000
     35902     11968  TIP3      OH2            38.3539094280       -2.2943924159       14.4104336648  W2        12354           0.0000000000
     35903     11968  TIP3      H1             37.6335494280       -1.8542924159       13.9592036648  W2        12354           0.0000000000
     35904     11968  TIP3      H2             37.9883094280       -2.5449224159       15.2588336648  W2        12354           0.0000000000
     35905     11969  TIP3      OH2            40.8211694280       -2.6940024159       13.4401536648  W2        12355           0.0000000000
     35906     11969  TIP3      H1             39.9563894280       -2.6221524159       13.8441636648  W2        12355           0.0000000000
     35907     11969  TIP3      H2             40.7660694280       -2.1472724159       12.6564036648  W2        12355           0.0000000000
     35908     11970  TIP3      OH2            45.5317294280       -2.8061124159       12.6157536648  W2        12356           0.0000000000
     35909     11970  TIP3      H1             45.0751294280       -2.2771424159       11.9615936648  W2        12356           0.0000000000
     35910     11970  TIP3      H2             45.6945294280       -2.2029724159       13.3409836648  W2        12356           0.0000000000
     35911     11971  TIP3      OH2            47.8593594280       -3.9281524159       13.5607836648  W2        12357           0.0000000000
     35912     11971  TIP3      H1             46.9547294280       -3.7631324159       13.2949936648  W2        12357           0.0000000000
     35913     11971  TIP3      H2             48.2882194280       -3.0749324159       13.4951236648  W2        12357           0.0000000000
     35914     11972  TIP3      OH2            50.4635494280       -2.3582424159       13.8555636648  W2        12358           0.0000000000
     35915     11972  TIP3      H1             50.2817494280       -1.4423524159       13.6450536648  W2        12358           0.0000000000
     35916     11972  TIP3      H2             50.6403294280       -2.7685324159       13.0090236648  W2        12358           0.0000000000
     35917     11973  TIP3      OH2            37.7687194280       -3.6711424159       11.3206136648  W2        12359           0.0000000000
     35918     11973  TIP3      H1             37.7503194280       -4.0966324159       12.1778436648  W2        12359           0.0000000000
     35919     11973  TIP3      H2             38.5735094280       -3.9896424159       10.9118336648  W2        12359           0.0000000000
     35920     11974  TIP3      OH2            39.9100294280       -4.9612724159        9.9756036648  W2        12360           0.0000000000
     35921     11974  TIP3      H1             39.6910994280       -5.8775324159       10.1452036648  W2        12360           0.0000000000
     35922     11974  TIP3      H2             40.7342494280       -4.8212324159       10.4417436648  W2        12360           0.0000000000
     35923     11975  TIP3      OH2            42.4472794280       -4.4913424159       10.8244036648  W2        12361           0.0000000000
     35924     11975  TIP3      H1             42.6598494280       -5.3794424159       10.5374936648  W2        12361           0.0000000000
     35925     11975  TIP3      H2             42.5117894280       -4.5255724159       11.7788036648  W2        12361           0.0000000000
     35926     11976  TIP3      OH2            45.9556494280      -18.8272824159        9.9687336648  W2        12362           0.0000000000
     35927     11976  TIP3      H1             45.2813294280      -19.4567224159       10.2243136648  W2        12362           0.0000000000
     35928     11976  TIP3      H2             46.5195694280      -19.3113924159        9.3655236648  W2        12362           0.0000000000
     35929     11977  TIP3      OH2            51.0983694280      -20.7198824159       10.0814436648  W2        12363           0.0000000000
     35930     11977  TIP3      H1             51.7021294280      -20.1723424159        9.5795436648  W2        12363           0.0000000000
     35931     11977  TIP3      H2             50.2285694280      -20.4008424159        9.8408536648  W2        12363           0.0000000000
     35932     11978  TIP3      OH2            52.8254094280      -19.5810124159        8.4145336648  W2        12364           0.0000000000
     35933     11978  TIP3      H1             53.4371594280      -20.0954424159        7.8878936648  W2        12364           0.0000000000
     35934     11978  TIP3      H2             53.2077494280      -18.7038024159        8.4379736648  W2        12364           0.0000000000
     35935     11979  TIP3      OH2            38.2823994280      -20.1932524159        7.7907236648  W2        12365           0.0000000000
     35936     11979  TIP3      H1             37.5053794280      -20.4277624159        7.2833136648  W2        12365           0.0000000000
     35937     11979  TIP3      H2             38.8127594280      -20.9900424159        7.7995236648  W2        12365           0.0000000000
     35938     11980  TIP3      OH2            37.1187394280      -20.3954424159        3.5943336648  W2        12366           0.0000000000
     35939     11980  TIP3      H1             37.5578094280      -19.7843924159        3.0026836648  W2        12366           0.0000000000
     35940     11980  TIP3      H2             36.4849794280      -19.8570324159        4.0683336648  W2        12366           0.0000000000
     35941     11981  TIP3      OH2            42.8616594280      -20.2665424159        7.6040336648  W2        12367           0.0000000000
     35942     11981  TIP3      H1             43.7359994280      -19.8781124159        7.5744636648  W2        12367           0.0000000000
     35943     11981  TIP3      H2             42.7257394280      -20.4817624159        8.5267536648  W2        12367           0.0000000000
     35944     11982  TIP3      OH2            48.4184994280      -20.2365624159        9.2532036648  W2        12368           0.0000000000
     35945     11982  TIP3      H1             48.4946594280      -20.1414024159        8.3038036648  W2        12368           0.0000000000
     35946     11982  TIP3      H2             48.1434194280      -21.1442724159        9.3821136648  W2        12368           0.0000000000
     35947     11983  TIP3      OH2            49.7717594280      -20.2107824159        4.9457036648  W2        12369           0.0000000000
     35948     11983  TIP3      H1             49.0688694280      -19.5958624159        4.7358436648  W2        12369           0.0000000000
     35949     11983  TIP3      H2             49.3268994280      -21.0481124159        5.0767936648  W2        12369           0.0000000000
     35950     11984  TIP3      OH2            37.0196894280       -4.4472224159        4.4918436648  W2        12370           0.0000000000
     35951     11984  TIP3      H1             36.3346794280       -4.4853324159        3.8243536648  W2        12370           0.0000000000
     35952     11984  TIP3      H2             37.0234094280       -3.5344624159        4.7800536648  W2        12370           0.0000000000
     35953     11985  TIP3      OH2            38.9796494280      -18.4792924159        2.0367436648  W2        12371           0.0000000000
     35954     11985  TIP3      H1             39.4709894280      -19.1090524159        1.5092936648  W2        12371           0.0000000000
     35955     11985  TIP3      H2             39.6032794280      -18.1833524159        2.6998636648  W2        12371           0.0000000000
     35956     11986  TIP3      OH2            44.0056594280      -18.1861424159        4.4937936648  W2        12372           0.0000000000
     35957     11986  TIP3      H1             44.1837894280      -18.8328224159        5.1766536648  W2        12372           0.0000000000
     35958     11986  TIP3      H2             43.9522794280      -17.3523724159        4.9609036648  W2        12372           0.0000000000
     35959     11987  TIP3      OH2            45.8840394280       -3.2377324159        2.8894636648  W2        12373           0.0000000000
     35960     11987  TIP3      H1             46.7500594280       -2.8709924159        2.7112836648  W2        12373           0.0000000000
     35961     11987  TIP3      H2             45.6373194280       -3.6769324159        2.0755436648  W2        12373           0.0000000000
     35962     11988  TIP3      OH2            52.5929994280       -3.6747024159        5.5685736648  W2        12374           0.0000000000
     35963     11988  TIP3      H1             52.3987094280       -4.4224924159        5.0035336648  W2        12374           0.0000000000
     35964     11988  TIP3      H2             52.5540094280       -2.9166924159        4.9853636648  W2        12374           0.0000000000
     35965     11989  TIP3      OH2            38.2401994280      -19.6790624159       17.3083436648  W2        12375           0.0000000000
     35966     11989  TIP3      H1             37.8740194280      -20.4448024159       17.7508136648  W2        12375           0.0000000000
     35967     11989  TIP3      H2             39.1530494280      -19.6500424159       17.5948536648  W2        12375           0.0000000000
     35968     11990  TIP3      OH2            38.8378094280       -3.5271424159        1.5170536648  W2        12377           0.0000000000
     35969     11990  TIP3      H1             38.5702694280       -3.2408524159        2.3903636648  W2        12377           0.0000000000
     35970     11990  TIP3      H2             39.6090694280       -4.0732224159        1.6693036648  W2        12377           0.0000000000
     35971     11991  TIP3      OH2            51.8106194280       -4.9234624159       17.7187536648  W2        12379           0.0000000000
     35972     11991  TIP3      H1             51.0288094280       -5.1096624159       17.1988136648  W2        12379           0.0000000000
     35973     11991  TIP3      H2             51.7386094280       -3.9940324159       17.9360036648  W2        12379           0.0000000000
     35974     11992  TIP3      OH2            57.5182894280      -12.1677424159       12.7612836648  W2        12380           0.0000000000
     35975     11992  TIP3      H1             57.5594994280      -12.7934124159       13.4845236648  W2        12380           0.0000000000
     35976     11992  TIP3      H2             58.2210594280      -11.5438824159       12.9433236648  W2        12380           0.0000000000
     35977     11993  TIP3      OH2            58.4415994280       -7.7178524159       11.2961936648  W2        12381           0.0000000000
     35978     11993  TIP3      H1             58.0721194280       -8.5198024159       10.9266236648  W2        12381           0.0000000000
     35979     11993  TIP3      H2             59.3827094280       -7.8863624159       11.3425336648  W2        12381           0.0000000000
     35980     11994  TIP3      OH2            55.0516494280      -14.0575924159        6.6890736648  W2        12382           0.0000000000
     35981     11994  TIP3      H1             54.6039894280      -13.2117224159        6.6707236648  W2        12382           0.0000000000
     35982     11994  TIP3      H2             54.4907694280      -14.6371724159        6.1735836648  W2        12382           0.0000000000
     35983     11995  TIP3      OH2            55.7622594280      -11.8956324159        8.8148736648  W2        12383           0.0000000000
     35984     11995  TIP3      H1             55.9756094280      -12.6654724159        9.3421736648  W2        12383           0.0000000000
     35985     11995  TIP3      H2             56.5000194280      -11.8059624159        8.2116336648  W2        12383           0.0000000000
     35986     11996  TIP3      OH2            56.4549094280      -14.4573524159        9.9364936648  W2        12384           0.0000000000
     35987     11996  TIP3      H1             57.1085694280      -15.0071824159       10.3685036648  W2        12384           0.0000000000
     35988     11996  TIP3      H2             56.4788394280      -14.7314524159        9.0196936648  W2        12384           0.0000000000
     35989     11997  TIP3      OH2            58.2386794280      -16.0439124159       11.2006536648  W2        12385           0.0000000000
     35990     11997  TIP3      H1             58.8523094280      -15.4111524159       11.5738936648  W2        12385           0.0000000000
     35991     11997  TIP3      H2             58.7507494280      -16.5164124159       10.5443436648  W2        12385           0.0000000000
     35992     11998  TIP3      OH2            55.7426094280       -8.6254324159        5.1048836648  W2        12386           0.0000000000
     35993     11998  TIP3      H1             55.4706994280       -8.3963324159        4.2161736648  W2        12386           0.0000000000
     35994     11998  TIP3      H2             55.7881794280       -7.7875524159        5.5654136648  W2        12386           0.0000000000
     35995     11999  TIP3      OH2            58.1556594280      -11.5871324159       15.6148536648  W2        12387           0.0000000000
     35996     11999  TIP3      H1             58.2259794280      -10.9364524159       16.3133536648  W2        12387           0.0000000000
     35997     11999  TIP3      H2             57.2648794280      -11.4843824159       15.2799436648  W2        12387           0.0000000000
     35998     12000  TIP3      OH2            55.0723294280       -9.5207224159       14.4398536648  W2        12388           0.0000000000
     35999     12000  TIP3      H1             54.5711694280       -9.5487824159       13.6248236648  W2        12388           0.0000000000
     36000     12000  TIP3      H2             55.0776994280      -10.4264024159       14.7495836648  W2        12388           0.0000000000
     36001     12001  TIP3      OH2            54.8225994280       -6.7403424159       11.3238736648  W2        12389           0.0000000000
     36002     12001  TIP3      H1             55.7686594280       -6.8846424159       11.3048236648  W2        12389           0.0000000000
     36003     12001  TIP3      H2             54.7102294280       -5.9560624159       11.8609936648  W2        12389           0.0000000000
     36004     12002  TIP3      OH2            58.0668094280       -3.9393824159        7.4693436648  W2        12390           0.0000000000
     36005     12002  TIP3      H1             58.2188494280       -4.2873424159        8.3479936648  W2        12390           0.0000000000
     36006     12002  TIP3      H2             57.2158494280       -4.2956524159        7.2140636648  W2        12390           0.0000000000
     36007     12003  TIP3      OH2            57.3213794280       -8.1971824159       15.4831336648  W2        12391           0.0000000000
     36008     12003  TIP3      H1             57.5375094280       -8.5586224159       16.3427136648  W2        12391           0.0000000000
     36009     12003  TIP3      H2             56.4658494280       -8.5718024159       15.2734836648  W2        12391           0.0000000000
     36010     12004  TIP3      OH2            57.7812394280      -14.4413324159       14.4407736648  W2        12392           0.0000000000
     36011     12004  TIP3      H1             57.7431794280      -14.0411724159       15.3094836648  W2        12392           0.0000000000
     36012     12004  TIP3      H2             57.2903494280      -15.2580924159       14.5310636648  W2        12392           0.0000000000
     36013     12005  TIP3      OH2            54.3893194280      -17.3251524159        8.2912436648  W2        12393           0.0000000000
     36014     12005  TIP3      H1             55.0200894280      -17.3539424159        9.0106336648  W2        12393           0.0000000000
     36015     12005  TIP3      H2             54.8387494280      -17.7502824159        7.5608336648  W2        12393           0.0000000000
     36016     12006  TIP3      OH2            55.6635294280      -16.5789524159        3.7152836648  W2        12394           0.0000000000
     36017     12006  TIP3      H1             56.1376994280      -15.9879624159        3.1303736648  W2        12394           0.0000000000
     36018     12006  TIP3      H2             54.9461694280      -16.0486624159        4.0622936648  W2        12394           0.0000000000
     36019     12007  TIP3      OH2            57.4379694280      -15.4842924159        7.3987436648  W2        12395           0.0000000000
     36020     12007  TIP3      H1             56.5487694280      -15.3847424159        7.0587036648  W2        12395           0.0000000000
     36021     12007  TIP3      H2             57.7344594280      -16.3259924159        7.0525336648  W2        12395           0.0000000000
     36022     12008  TIP3      OH2            57.9003094280       -9.7326224159       17.7209736648  W2        12396           0.0000000000
     36023     12008  TIP3      H1             58.6325494280       -9.4780324159       18.2824236648  W2        12396           0.0000000000
     36024     12008  TIP3      H2             57.1201794280       -9.5280824159       18.2365136648  W2        12396           0.0000000000
     36025     12009  TIP3      OH2            58.2252794280      -10.4292424159       10.3274136648  W2        12397           0.0000000000
     36026     12009  TIP3      H1             58.9699994280      -10.4316724159        9.7260636648  W2        12397           0.0000000000
     36027     12009  TIP3      H2             58.3029394280      -11.2528624159       10.8089236648  W2        12397           0.0000000000
     36028     12010  TIP3      OH2            55.2332494280      -11.9685524159       15.6422636648  W2        12398           0.0000000000
     36029     12010  TIP3      H1             55.4561094280      -12.3865924159       16.4740136648  W2        12398           0.0000000000
     36030     12010  TIP3      H2             54.6312594280      -12.5810524159       15.2195436648  W2        12398           0.0000000000
     36031     12011  TIP3      OH2            56.3549894280      -12.0490124159        2.3188036648  W2        12399           0.0000000000
     36032     12011  TIP3      H1             56.9709794280      -11.4222924159        2.6982836648  W2        12399           0.0000000000
     36033     12011  TIP3      H2             55.4932494280      -11.7330324159        2.5904536648  W2        12399           0.0000000000
     36034     12012  TIP3      OH2            56.8671994280      -17.2152824159       15.2004036648  W2        12400           0.0000000000
     36035     12012  TIP3      H1             55.9744294280      -16.8767424159       15.1328036648  W2        12400           0.0000000000
     36036     12012  TIP3      H2             56.7684794280      -18.0706724159       15.6184836648  W2        12400           0.0000000000
     36037     12013  TIP3      OH2            56.5183994280       -5.4108424159       13.6353436648  W2        12401           0.0000000000
     36038     12013  TIP3      H1             56.7354294280       -6.3426024159       13.6043136648  W2        12401           0.0000000000
     36039     12013  TIP3      H2             56.7647494280       -5.1363424159       14.5186236648  W2        12401           0.0000000000
     36040     12014  TIP3      OH2            57.7700294280      -10.1366324159        3.8113636648  W2        12402           0.0000000000
     36041     12014  TIP3      H1             57.0839594280       -9.7843824159        4.3783336648  W2        12402           0.0000000000
     36042     12014  TIP3      H2             58.2928194280       -9.3736724159        3.5647936648  W2        12402           0.0000000000
     36043     12015  TIP3      OH2            58.3859194280       -7.5227424159        2.7081436648  W2        12403           0.0000000000
     36044     12015  TIP3      H1             58.9780694280       -6.8232624159        2.9843836648  W2        12403           0.0000000000
     36045     12015  TIP3      H2             58.8452194280       -7.9557924159        1.9886036648  W2        12403           0.0000000000
     36046     12016  TIP3      OH2            56.7018394280      -14.8584424159        1.8240836648  W2        12404           0.0000000000
     36047     12016  TIP3      H1             56.6570994280      -13.9191324159        2.0027836648  W2        12404           0.0000000000
     36048     12016  TIP3      H2             55.8141594280      -15.0939524159        1.5542936648  W2        12404           0.0000000000
     36049     12017  TIP3      OH2            57.5100394280      -20.0767824159       10.4971836648  W2        12405           0.0000000000
     36050     12017  TIP3      H1             57.2810194280      -20.0175324159        9.5696836648  W2        12405           0.0000000000
     36051     12017  TIP3      H2             57.0673794280      -20.8682324159       10.8035936648  W2        12405           0.0000000000
     36052     12018  TIP3      OH2            56.4403694280       -6.1360724159        6.6577636648  W2        12406           0.0000000000
     36053     12018  TIP3      H1             55.6082294280       -5.6638024159        6.6849036648  W2        12406           0.0000000000
     36054     12018  TIP3      H2             56.9861994280       -5.6263124159        6.0590736648  W2        12406           0.0000000000
     36055     12019  TIP3      OH2            55.6631394280       -7.8271724159        2.1267436648  W2        12411           0.0000000000
     36056     12019  TIP3      H1             56.5770594280       -7.7482824159        2.4001336648  W2        12411           0.0000000000
     36057     12019  TIP3      H2             55.6704494280       -8.5142124159        1.4603036648  W2        12411           0.0000000000
     36058     12020  TIP3      OH2            54.3121994280       -2.4343224159        7.2041336648  W2        12412           0.0000000000
     36059     12020  TIP3      H1             53.6649094280       -2.8961524159        6.6712536648  W2        12412           0.0000000000
     36060     12020  TIP3      H2             54.6666594280       -3.1059924159        7.7867536648  W2        12412           0.0000000000
     36061     12021  TIP3      OH2            55.1821194280       -4.3536224159        9.0087536648  W2        12413           0.0000000000
     36062     12021  TIP3      H1             54.8477994280       -5.2338924159        9.1807736648  W2        12413           0.0000000000
     36063     12021  TIP3      H2             55.4043594280       -4.0081224159        9.8733136648  W2        12413           0.0000000000
     36064     12022  TIP3      OH2            55.2620694280      -11.2780824159       11.4602436648  W2        12414           0.0000000000
     36065     12022  TIP3      H1             55.4463594280      -11.3599124159       10.5245336648  W2        12414           0.0000000000
     36066     12022  TIP3      H2             56.1113594280      -11.4023824159       11.8838836648  W2        12414           0.0000000000
     36067     12023  TIP3      OH2            54.8595494280      -16.0075824159       17.6011236648  W2        12415           0.0000000000
     36068     12023  TIP3      H1             55.7790394280      -16.1297524159       17.8374336648  W2        12415           0.0000000000
     36069     12023  TIP3      H2             54.4099994280      -16.7576124159       17.9904736648  W2        12415           0.0000000000
     36070     12024  TIP3      OH2            56.0807994280      -17.6954224159       10.4924136648  W2        12416           0.0000000000
     36071     12024  TIP3      H1             56.5259594280      -18.4871724159       10.7943836648  W2        12416           0.0000000000
     36072     12024  TIP3      H2             56.5470994280      -16.9789024159       10.9229736648  W2        12416           0.0000000000
     36073     12025  TIP3      OH2            54.3848294280      -14.6961224159       11.5614336648  W2        12417           0.0000000000
     36074     12025  TIP3      H1             54.8768094280      -14.9170724159       10.7706336648  W2        12417           0.0000000000
     36075     12025  TIP3      H2             54.7469194280      -13.8557824159       11.8423836648  W2        12417           0.0000000000
     36076     12026  TIP3      OH2            54.6984794280      -18.4382124159        5.6156736648  W2        12418           0.0000000000
     36077     12026  TIP3      H1             53.7733194280      -18.2295524159        5.4862236648  W2        12418           0.0000000000
     36078     12026  TIP3      H2             55.1524694280      -17.9541324159        4.9259036648  W2        12418           0.0000000000
     36079     12027  TIP3      OH2            54.6620194280      -19.7003124159       13.9599236648  W2        12419           0.0000000000
     36080     12027  TIP3      H1             53.9970694280      -19.9462824159       14.6030136648  W2        12419           0.0000000000
     36081     12027  TIP3      H2             54.2191494280      -19.0782724159       13.3827236648  W2        12419           0.0000000000
     36082     12028  TIP3      OH2            57.2099094280       -2.2943924159       14.4104336648  W2        12421           0.0000000000
     36083     12028  TIP3      H1             56.4895494280       -1.8542924159       13.9592036648  W2        12421           0.0000000000
     36084     12028  TIP3      H2             56.8443094280       -2.5449224159       15.2588336648  W2        12421           0.0000000000
     36085     12029  TIP3      OH2            56.6247194280       -3.6711424159       11.3206136648  W2        12422           0.0000000000
     36086     12029  TIP3      H1             56.6063194280       -4.0966324159       12.1778436648  W2        12422           0.0000000000
     36087     12029  TIP3      H2             57.4295094280       -3.9896424159       10.9118336648  W2        12422           0.0000000000
     36088     12030  TIP3      OH2            57.1383994280      -20.1932524159        7.7907236648  W2        12423           0.0000000000
     36089     12030  TIP3      H1             56.3613794280      -20.4277624159        7.2833136648  W2        12423           0.0000000000
     36090     12030  TIP3      H2             57.6687594280      -20.9900424159        7.7995236648  W2        12423           0.0000000000
     36091     12031  TIP3      OH2            55.9747394280      -20.3954424159        3.5943336648  W2        12424           0.0000000000
     36092     12031  TIP3      H1             56.4138094280      -19.7843924159        3.0026836648  W2        12424           0.0000000000
     36093     12031  TIP3      H2             55.3409794280      -19.8570324159        4.0683336648  W2        12424           0.0000000000
     36094     12032  TIP3      OH2            55.8756894280       -4.4472224159        4.4918436648  W2        12425           0.0000000000
     36095     12032  TIP3      H1             55.1906794280       -4.4853324159        3.8243536648  W2        12425           0.0000000000
     36096     12032  TIP3      H2             55.8794094280       -3.5344624159        4.7800536648  W2        12425           0.0000000000
     36097     12033  TIP3      OH2            57.8356494280      -18.4792924159        2.0367436648  W2        12426           0.0000000000
     36098     12033  TIP3      H1             58.3269894280      -19.1090524159        1.5092936648  W2        12426           0.0000000000
     36099     12033  TIP3      H2             58.4592794280      -18.1833524159        2.6998636648  W2        12426           0.0000000000
     36100     12034  TIP3      OH2            57.0961994280      -19.6790624159       17.3083436648  W2        12427           0.0000000000
     36101     12034  TIP3      H1             56.7300194280      -20.4448024159       17.7508136648  W2        12427           0.0000000000
     36102     12034  TIP3      H2             58.0090494280      -19.6500424159       17.5948536648  W2        12427           0.0000000000
     36103     12035  TIP3      OH2            57.6938094280       -3.5271424159        1.5170536648  W2        12428           0.0000000000
     36104     12035  TIP3      H1             57.4262694280       -3.2408524159        2.3903636648  W2        12428           0.0000000000
     36105     12035  TIP3      H2             58.4650694280       -4.0732224159        1.6693036648  W2        12428           0.0000000000
     36106     12036  TIP3      OH2           -46.9193405720        7.8189775841        7.7494736648  W2        12429           0.0000000000
     36107     12036  TIP3      H1            -46.8302305720        8.7627975841        7.6171836648  W2        12429           0.0000000000
     36108     12036  TIP3      H2            -47.5575805720        7.5436175841        7.0914136648  W2        12429           0.0000000000
     36109     12037  TIP3      OH2           -47.9862105720        7.0740475841       11.1682936648  W2        12430           0.0000000000
     36110     12037  TIP3      H1            -48.0244605720        6.4276775841       11.8732536648  W2        12430           0.0000000000
     36111     12037  TIP3      H2            -48.3085605720        6.6074875841       10.3971636648  W2        12430           0.0000000000
     36112     12038  TIP3      OH2           -55.6177105720        6.6882575841       12.7612836648  W2        12431           0.0000000000
     36113     12038  TIP3      H1            -55.5765005720        6.0625875841       13.4845236648  W2        12431           0.0000000000
     36114     12038  TIP3      H2            -54.9149405720        7.3121175841       12.9433236648  W2        12431           0.0000000000
     36115     12039  TIP3      OH2           -44.2801905720       10.0130875841        9.4698036648  W2        12432           0.0000000000
     36116     12039  TIP3      H1            -44.7209205720        9.2926875841        9.9203636648  W2        12432           0.0000000000
     36117     12039  TIP3      H2            -44.2932205720       10.7338075841       10.0995736648  W2        12432           0.0000000000
     36118     12040  TIP3      OH2           -54.6944005720       11.1381475841       11.2961936648  W2        12433           0.0000000000
     36119     12040  TIP3      H1            -55.0638805720       10.3361975841       10.9266236648  W2        12433           0.0000000000
     36120     12040  TIP3      H2            -53.7532905720       10.9696375841       11.3425336648  W2        12433           0.0000000000
     36121     12041  TIP3      OH2           -58.0843505720        4.7984075841        6.6890736648  W2        12434           0.0000000000
     36122     12041  TIP3      H1            -58.5320105720        5.6442775841        6.6707236648  W2        12434           0.0000000000
     36123     12041  TIP3      H2            -58.6452305720        4.2188275841        6.1735836648  W2        12434           0.0000000000
     36124     12042  TIP3      OH2           -57.3737405720        6.9603675841        8.8148736648  W2        12435           0.0000000000
     36125     12042  TIP3      H1            -57.1603905720        6.1905275841        9.3421736648  W2        12435           0.0000000000
     36126     12042  TIP3      H2            -56.6359805720        7.0500375841        8.2116336648  W2        12435           0.0000000000
     36127     12043  TIP3      OH2           -47.1686405720       15.1172575841        9.6818436648  W2        12436           0.0000000000
     36128     12043  TIP3      H1            -46.5490005720       14.4407275841        9.4087636648  W2        12436           0.0000000000
     36129     12043  TIP3      H2            -47.3769005720       14.8993375841       10.5903336648  W2        12436           0.0000000000
     36130     12044  TIP3      OH2           -49.5967705720        9.5061875841       11.5743936648  W2        12437           0.0000000000
     36131     12044  TIP3      H1            -49.2929805720        8.8203275841       10.9798036648  W2        12437           0.0000000000
     36132     12044  TIP3      H2            -48.8753705720        9.6250575841       12.1921936648  W2        12437           0.0000000000
     36133     12045  TIP3      OH2           -40.9337905720        1.1077175841       12.4350136648  W2        12438           0.0000000000
     36134     12045  TIP3      H1            -40.8845705720        1.7178375841       13.1709236648  W2        12438           0.0000000000
     36135     12045  TIP3      H2            -40.5082805720        1.5688075841       11.7121236648  W2        12438           0.0000000000
     36136     12046  TIP3      OH2           -46.4560705720        3.9004275841       11.9018736648  W2        12439           0.0000000000
     36137     12046  TIP3      H1            -46.3134805720        2.9541275841       11.9220336648  W2        12439           0.0000000000
     36138     12046  TIP3      H2            -46.5621705720        4.1074075841       10.9733636648  W2        12439           0.0000000000
     36139     12047  TIP3      OH2           -53.3012405720        2.0020675841        9.1743536648  W2        12440           0.0000000000
     36140     12047  TIP3      H1            -53.2581305720        2.8619175841        8.7559836648  W2        12440           0.0000000000
     36141     12047  TIP3      H2            -53.7588305720        1.4495375841        8.5406736648  W2        12440           0.0000000000
     36142     12048  TIP3      OH2           -45.5789705720        2.1326275841        7.5751836648  W2        12441           0.0000000000
     36143     12048  TIP3      H1            -44.9325405720        1.8039475841        8.1999436648  W2        12441           0.0000000000
     36144     12048  TIP3      H2            -45.0690305720        2.6505275841        6.9523236648  W2        12441           0.0000000000
     36145     12049  TIP3      OH2           -56.6810905720        4.3986475841        9.9364936648  W2        12442           0.0000000000
     36146     12049  TIP3      H1            -56.0274305720        3.8488175841       10.3685036648  W2        12442           0.0000000000
     36147     12049  TIP3      H2            -56.6571605720        4.1245475841        9.0196936648  W2        12442           0.0000000000
     36148     12050  TIP3      OH2           -51.5246405720        5.9487775841        9.1516436648  W2        12443           0.0000000000
     36149     12050  TIP3      H1            -50.9085405720        5.4223175841        9.6610436648  W2        12443           0.0000000000
     36150     12050  TIP3      H2            -52.1107605720        5.3086475841        8.7480036648  W2        12443           0.0000000000
     36151     12051  TIP3      OH2           -40.5423305720        2.5856375841       14.6709936648  W2        12444           0.0000000000
     36152     12051  TIP3      H1            -41.2308705720        3.2437075841       14.5756536648  W2        12444           0.0000000000
     36153     12051  TIP3      H2            -40.5268705720        2.3884275841       15.6075336648  W2        12444           0.0000000000
     36154     12052  TIP3      OH2           -54.4910505720        0.9199075841       13.2484336648  W2        12445           0.0000000000
     36155     12052  TIP3      H1            -54.7098805720        1.4499675841       12.4820336648  W2        12445           0.0000000000
     36156     12052  TIP3      H2            -55.1589605720        1.1464575841       13.8955736648  W2        12445           0.0000000000
     36157     12053  TIP3      OH2           -47.1220705720       10.4200175841        6.7923436648  W2        12446           0.0000000000
     36158     12053  TIP3      H1            -47.4175605720       10.0972475841        5.9410336648  W2        12446           0.0000000000
     36159     12053  TIP3      H2            -47.4462905720       11.3196875841        6.8336036648  W2        12446           0.0000000000
     36160     12054  TIP3      OH2           -51.9219105720        8.5954775841       13.5358036648  W2        12447           0.0000000000
     36161     12054  TIP3      H1            -52.6620005720        9.1936275841       13.6393236648  W2        12447           0.0000000000
     36162     12054  TIP3      H2            -51.2079605720        9.1494375841       13.2201636648  W2        12447           0.0000000000
     36163     12055  TIP3      OH2           -43.8151305720        1.4235575841        9.5557736648  W2        12448           0.0000000000
     36164     12055  TIP3      H1            -44.0303305720        0.6578975841       10.0883736648  W2        12448           0.0000000000
     36165     12055  TIP3      H2            -43.1593905720        1.8960175841       10.0686236648  W2        12448           0.0000000000
     36166     12056  TIP3      OH2           -54.8973205720        2.8120875841       11.2006536648  W2        12449           0.0000000000
     36167     12056  TIP3      H1            -54.2836905720        3.4448475841       11.5738936648  W2        12449           0.0000000000
     36168     12056  TIP3      H2            -54.3852505720        2.3395875841       10.5443436648  W2        12449           0.0000000000
     36169     12057  TIP3      OH2           -53.5144805720       10.5597775841       14.3229536648  W2        12450           0.0000000000
     36170     12057  TIP3      H1            -53.5197205720       11.4391275841       13.9448836648  W2        12450           0.0000000000
     36171     12057  TIP3      H2            -54.3680705720       10.4761875841       14.7479436648  W2        12450           0.0000000000
     36172     12058  TIP3      OH2           -57.3933905720       10.2305675841        5.1048836648  W2        12451           0.0000000000
     36173     12058  TIP3      H1            -57.6653005720       10.4596675841        4.2161736648  W2        12451           0.0000000000
     36174     12058  TIP3      H2            -57.3478205720       11.0684475841        5.5654136648  W2        12451           0.0000000000
     36175     12059  TIP3      OH2           -43.7684205720       11.8521575841       11.8177336648  W2        12452           0.0000000000
     36176     12059  TIP3      H1            -44.7100505720       11.9105475841       11.9794236648  W2        12452           0.0000000000
     36177     12059  TIP3      H2            -43.4918105720       12.7582075841       11.6807036648  W2        12452           0.0000000000
     36178     12060  TIP3      OH2           -43.4677205720        0.1386875841       13.2351236648  W2        12453           0.0000000000
     36179     12060  TIP3      H1            -44.2038005720        0.7493975841       13.1972536648  W2        12453           0.0000000000
     36180     12060  TIP3      H2            -42.7843205720        0.5535875841       12.7087636648  W2        12453           0.0000000000
     36181     12061  TIP3      OH2           -50.4645805720       -1.7745824159       10.7009236648  W2        12454           0.0000000000
     36182     12061  TIP3      H1            -50.5821605720       -2.7229824159       10.6467536648  W2        12454           0.0000000000
     36183     12061  TIP3      H2            -51.3195705720       -1.4419724159       10.9740336648  W2        12454           0.0000000000
     36184     12062  TIP3      OH2           -45.5163005720       13.6335075841        8.4428936648  W2        12455           0.0000000000
     36185     12062  TIP3      H1            -45.0910705720       12.9262975841        7.9578536648  W2        12455           0.0000000000
     36186     12062  TIP3      H2            -45.1993005720       14.4347775841        8.0261136648  W2        12455           0.0000000000
     36187     12063  TIP3      OH2           -44.3566505720       11.5343575841        6.9515536648  W2        12456           0.0000000000
     36188     12063  TIP3      H1            -44.6141705720       10.8443675841        6.3401436648  W2        12456           0.0000000000
     36189     12063  TIP3      H2            -44.2855705720       11.0914775841        7.7971436648  W2        12456           0.0000000000
     36190     12064  TIP3      OH2           -42.6706305720       10.1010275841       15.4289036648  W2        12457           0.0000000000
     36191     12064  TIP3      H1            -42.5310005720        9.5092775841       14.6896036648  W2        12457           0.0000000000
     36192     12064  TIP3      H2            -42.5033505720       10.9736175841       15.0727836648  W2        12457           0.0000000000
     36193     12065  TIP3      OH2           -48.1980905720        7.0629775841        5.2015036648  W2        12458           0.0000000000
     36194     12065  TIP3      H1            -48.9095405720        7.5979475841        4.8495536648  W2        12458           0.0000000000
     36195     12065  TIP3      H2            -47.5071305720        7.1181875841        4.5413936648  W2        12458           0.0000000000
     36196     12066  TIP3      OH2           -48.1441705720        5.5204075841        2.2400036648  W2        12459           0.0000000000
     36197     12066  TIP3      H1            -47.4431805720        5.5430975841        2.8914036648  W2        12459           0.0000000000
     36198     12066  TIP3      H2            -47.8418805720        4.8923775841        1.5839336648  W2        12459           0.0000000000
     36199     12067  TIP3      OH2           -40.8287005720        6.4408275841       13.4949436648  W2        12460           0.0000000000
     36200     12067  TIP3      H1            -41.4812905720        7.1353875841       13.5840336648  W2        12460           0.0000000000
     36201     12067  TIP3      H2            -40.3636705720        6.6509175841       12.6851036648  W2        12460           0.0000000000
     36202     12068  TIP3      OH2           -44.7923205720        7.2723075841        6.1530936648  W2        12461           0.0000000000
     36203     12068  TIP3      H1            -45.5242205720        7.5006775841        6.7261536648  W2        12461           0.0000000000
     36204     12068  TIP3      H2            -44.3451005720        6.5585775841        6.6078436648  W2        12461           0.0000000000
     36205     12069  TIP3      OH2           -44.8949705720        5.4465675841       15.2207936648  W2        12462           0.0000000000
     36206     12069  TIP3      H1            -44.8150605720        6.2100075841       15.7926436648  W2        12462           0.0000000000
     36207     12069  TIP3      H2            -45.4962005720        5.7258075841       14.5303036648  W2        12462           0.0000000000
     36208     12070  TIP3      OH2           -53.1469505720        7.9029275841        8.0355936648  W2        12463           0.0000000000
     36209     12070  TIP3      H1            -53.4774305720        7.5322675841        7.2172936648  W2        12463           0.0000000000
     36210     12070  TIP3      H2            -52.5585405720        7.2323275841        8.3824236648  W2        12463           0.0000000000
     36211     12071  TIP3      OH2           -51.7802005720       11.3309875841       10.7168136648  W2        12464           0.0000000000
     36212     12071  TIP3      H1            -51.8750705720       10.7522975841        9.9602736648  W2        12464           0.0000000000
     36213     12071  TIP3      H2            -51.0508405720       10.9595575841       11.2130936648  W2        12464           0.0000000000
     36214     12072  TIP3      OH2           -52.7804005720        6.6714875841       11.6690936648  W2        12465           0.0000000000
     36215     12072  TIP3      H1            -52.2151505720        6.7929075841       10.9062136648  W2        12465           0.0000000000
     36216     12072  TIP3      H2            -52.4615105720        7.3089875841       12.3079436648  W2        12465           0.0000000000
     36217     12073  TIP3      OH2           -46.4711805720       12.1746775841       12.4031436648  W2        12466           0.0000000000
     36218     12073  TIP3      H1            -46.7115205720       12.8369875841       13.0510636648  W2        12466           0.0000000000
     36219     12073  TIP3      H2            -46.6693605720       11.3401975841       12.8281036648  W2        12466           0.0000000000
     36220     12074  TIP3      OH2           -51.9003305720       11.0707575841       16.3862836648  W2        12467           0.0000000000
     36221     12074  TIP3      H1            -52.2115805720       11.8530775841       16.8416036648  W2        12467           0.0000000000
     36222     12074  TIP3      H2            -52.5503105720       10.9176675841       15.7004836648  W2        12467           0.0000000000
     36223     12075  TIP3      OH2           -45.9213705720        6.4345975841        3.8382136648  W2        12468           0.0000000000
     36224     12075  TIP3      H1            -45.3418205720        6.5846275841        4.5851036648  W2        12468           0.0000000000
     36225     12075  TIP3      H2            -45.5073705720        6.9053375841        3.1148536648  W2        12468           0.0000000000
     36226     12076  TIP3      OH2           -54.9803405720        7.2688675841       15.6148536648  W2        12469           0.0000000000
     36227     12076  TIP3      H1            -54.9100205720        7.9195475841       16.3133536648  W2        12469           0.0000000000
     36228     12076  TIP3      H2            -55.8711205720        7.3716175841       15.2799436648  W2        12469           0.0000000000
     36229     12077  TIP3      OH2           -48.1948805720       13.1714475841        7.2735236648  W2        12470           0.0000000000
     36230     12077  TIP3      H1            -47.7211205720       13.4670775841        8.0509436648  W2        12470           0.0000000000
     36231     12077  TIP3      H2            -48.7579505720       13.9096075841        7.0404836648  W2        12470           0.0000000000
     36232     12078  TIP3      OH2           -53.6607405720       13.1422575841       17.1496636648  W2        12471           0.0000000000
     36233     12078  TIP3      H1            -53.6532105720       13.0062275841       16.2022136648  W2        12471           0.0000000000
     36234     12078  TIP3      H2            -54.5767005720       13.0250675841       17.4016636648  W2        12471           0.0000000000
     36235     12079  TIP3      OH2           -42.2225305720       -1.8153624159        3.6511836648  W2        12472           0.0000000000
     36236     12079  TIP3      H1            -43.1224605720       -1.6764624159        3.9462436648  W2        12472           0.0000000000
     36237     12079  TIP3      H2            -41.9706905720       -0.9839024159        3.2493536648  W2        12472           0.0000000000
     36238     12080  TIP3      OH2           -54.1566805720        6.9723575841        5.6248736648  W2        12473           0.0000000000
     36239     12080  TIP3      H1            -54.4485505720        7.7405275841        5.1340036648  W2        12473           0.0000000000
     36240     12080  TIP3      H2            -54.8311605720        6.3129775841        5.4620136648  W2        12473           0.0000000000
     36241     12081  TIP3      OH2           -41.0333905720       12.5508775841        2.0275736648  W2        12474           0.0000000000
     36242     12081  TIP3      H1            -40.9600405720       13.4898975841        2.1981036648  W2        12474           0.0000000000
     36243     12081  TIP3      H2            -40.1278805720       12.2457375841        1.9713036648  W2        12474           0.0000000000
     36244     12082  TIP3      OH2           -58.0636705720        9.3352775841       14.4398536648  W2        12475           0.0000000000
     36245     12082  TIP3      H1            -58.5648305720        9.3072175841       13.6248236648  W2        12475           0.0000000000
     36246     12082  TIP3      H2            -58.0583005720        8.4295975841       14.7495836648  W2        12475           0.0000000000
     36247     12083  TIP3      OH2           -58.3134005720       12.1156575841       11.3238736648  W2        12476           0.0000000000
     36248     12083  TIP3      H1            -57.3673405720       11.9713575841       11.3048236648  W2        12476           0.0000000000
     36249     12083  TIP3      H2            -58.4257705720       12.8999375841       11.8609936648  W2        12476           0.0000000000
     36250     12084  TIP3      OH2           -40.1155505720       12.7816275841       17.0062436648  W2        12477           0.0000000000
     36251     12084  TIP3      H1            -40.1648705720       11.8264375841       16.9690036648  W2        12477           0.0000000000
     36252     12084  TIP3      H2            -40.9423205720       13.0491575841       17.4076236648  W2        12477           0.0000000000
     36253     12085  TIP3      OH2           -49.1371505720       12.3555475841       15.8823836648  W2        12478           0.0000000000
     36254     12085  TIP3      H1            -49.0496905720       13.1820075841       16.3572936648  W2        12478           0.0000000000
     36255     12085  TIP3      H2            -50.0006405720       12.0259275841       16.1313136648  W2        12478           0.0000000000
     36256     12086  TIP3      OH2           -48.7225705720       16.1279175841        5.6884436648  W2        12479           0.0000000000
     36257     12086  TIP3      H1            -48.7979705720       16.0066375841        4.7419636648  W2        12479           0.0000000000
     36258     12086  TIP3      H2            -48.6897005720       17.0771875841        5.8069036648  W2        12479           0.0000000000
     36259     12087  TIP3      OH2           -55.0691905720       14.9166175841        7.4693436648  W2        12480           0.0000000000
     36260     12087  TIP3      H1            -54.9171505720       14.5686575841        8.3479936648  W2        12480           0.0000000000
     36261     12087  TIP3      H2            -55.9201505720       14.5603475841        7.2140636648  W2        12480           0.0000000000
     36262     12088  TIP3      OH2           -45.6209705720       15.2819375841        2.6906836648  W2        12481           0.0000000000
     36263     12088  TIP3      H1            -45.2461305720       14.5375475841        2.2199436648  W2        12481           0.0000000000
     36264     12088  TIP3      H2            -45.6166005720       15.0119975841        3.6090136648  W2        12481           0.0000000000
     36265     12089  TIP3      OH2           -45.9521605720       15.2076475841        5.4399036648  W2        12482           0.0000000000
     36266     12089  TIP3      H1            -46.8871805720       15.3078375841        5.6186036648  W2        12482           0.0000000000
     36267     12089  TIP3      H2            -45.6719705720       14.4982475841        6.0182236648  W2        12482           0.0000000000
     36268     12090  TIP3      OH2           -42.9635705720        4.2748775841       17.4864636648  W2        12483           0.0000000000
     36269     12090  TIP3      H1            -43.3708905720        4.7554375841       16.7657936648  W2        12483           0.0000000000
     36270     12090  TIP3      H2            -42.9230005720        3.3694775841       17.1785436648  W2        12483           0.0000000000
     36271     12091  TIP3      OH2           -55.8146205720       10.6588175841       15.4831336648  W2        12484           0.0000000000
     36272     12091  TIP3      H1            -55.5984905720       10.2973775841       16.3427136648  W2        12484           0.0000000000
     36273     12091  TIP3      H2            -56.6701505720       10.2841975841       15.2734836648  W2        12484           0.0000000000
     36274     12092  TIP3      OH2           -53.1958205720       -0.8711324159       11.4785536648  W2        12485           0.0000000000
     36275     12092  TIP3      H1            -54.0574505720       -0.9583124159       11.0708436648  W2        12485           0.0000000000
     36276     12092  TIP3      H2            -53.2182505720       -0.0151224159       11.9063136648  W2        12485           0.0000000000
     36277     12093  TIP3      OH2           -48.5330405720       -1.1490924159       14.8532536648  W2        12486           0.0000000000
     36278     12093  TIP3      H1            -48.1127305720       -1.5643824159       15.6063136648  W2        12486           0.0000000000
     36279     12093  TIP3      H2            -49.4660805720       -1.3277624159       14.9704536648  W2        12486           0.0000000000
     36280     12094  TIP3      OH2           -45.2065505720        2.6064275841       15.7067036648  W2        12487           0.0000000000
     36281     12094  TIP3      H1            -45.7206005720        2.4806475841       16.5043036648  W2        12487           0.0000000000
     36282     12094  TIP3      H2            -45.3620805720        3.5187375841       15.4623236648  W2        12487           0.0000000000
     36283     12095  TIP3      OH2           -44.4440605720        7.4674275841        1.4680036648  W2        12488           0.0000000000
     36284     12095  TIP3      H1            -44.4019805720        7.2448175841        0.5380036648  W2        12488           0.0000000000
     36285     12095  TIP3      H2            -43.5948505720        7.8661375841        1.6579936648  W2        12488           0.0000000000
     36286     12096  TIP3      OH2           -48.8713105720        1.3432475841        2.1383336648  W2        12489           0.0000000000
     36287     12096  TIP3      H1            -49.1248305720        1.3624075841        3.0611436648  W2        12489           0.0000000000
     36288     12096  TIP3      H2            -49.1281005720        0.4717875841        1.8369536648  W2        12489           0.0000000000
     36289     12097  TIP3      OH2           -53.1048105720        4.0943175841       12.5735736648  W2        12490           0.0000000000
     36290     12097  TIP3      H1            -53.7466005720        4.0540475841       13.2825836648  W2        12490           0.0000000000
     36291     12097  TIP3      H2            -53.0676105720        5.0207875841       12.3358736648  W2        12490           0.0000000000
     36292     12098  TIP3      OH2           -53.1079005720        4.3153275841        7.4855736648  W2        12491           0.0000000000
     36293     12098  TIP3      H1            -54.0006105720        3.9749375841        7.4269536648  W2        12491           0.0000000000
     36294     12098  TIP3      H2            -52.6572405720        3.9384175841        6.7298936648  W2        12491           0.0000000000
     36295     12099  TIP3      OH2           -47.5723505720        4.7313575841        6.3026536648  W2        12492           0.0000000000
     36296     12099  TIP3      H1            -47.9813205720        5.5462175841        6.0111336648  W2        12492           0.0000000000
     36297     12099  TIP3      H2            -46.8517305720        4.5913675841        5.6883636648  W2        12492           0.0000000000
     36298     12100  TIP3      OH2           -48.4701905720        4.9069975841       17.7907236648  W2        12493           0.0000000000
     36299     12100  TIP3      H1            -49.0328105720        4.2021575841       18.1115036648  W2        12493           0.0000000000
     36300     12100  TIP3      H2            -47.6438505720        4.7861875841       18.2584836648  W2        12493           0.0000000000
     36301     12101  TIP3      OH2           -46.5675805720        4.1773975841        9.1166236648  W2        12494           0.0000000000
     36302     12101  TIP3      H1            -46.7631305720        4.7830775841        8.4016836648  W2        12494           0.0000000000
     36303     12101  TIP3      H2            -46.3863205720        3.3439175841        8.6822536648  W2        12494           0.0000000000
     36304     12102  TIP3      OH2           -55.3547605720        4.4146675841       14.4407736648  W2        12495           0.0000000000
     36305     12102  TIP3      H1            -55.3928205720        4.8148275841       15.3094836648  W2        12495           0.0000000000
     36306     12102  TIP3      H2            -55.8456505720        3.5979075841       14.5310636648  W2        12495           0.0000000000
     36307     12103  TIP3      OH2           -51.9890205720        1.7888975841        1.2393736648  W2        12496           0.0000000000
     36308     12103  TIP3      H1            -52.4199505720        1.3439075841        1.9691136648  W2        12496           0.0000000000
     36309     12103  TIP3      H2            -52.7071505720        2.1605275841        0.7271236648  W2        12496           0.0000000000
     36310     12104  TIP3      OH2           -58.7466805720        1.5308475841        8.2912436648  W2        12497           0.0000000000
     36311     12104  TIP3      H1            -58.1159105720        1.5020575841        9.0106336648  W2        12497           0.0000000000
     36312     12104  TIP3      H2            -58.2972505720        1.1057175841        7.5608336648  W2        12497           0.0000000000
     36313     12105  TIP3      OH2           -57.4724705720        2.2770475841        3.7152836648  W2        12498           0.0000000000
     36314     12105  TIP3      H1            -56.9983005720        2.8680375841        3.1303736648  W2        12498           0.0000000000
     36315     12105  TIP3      H2            -58.1898305720        2.8073375841        4.0622936648  W2        12498           0.0000000000
     36316     12106  TIP3      OH2           -47.3036605720        5.8155275841       13.7878636648  W2        12499           0.0000000000
     36317     12106  TIP3      H1            -46.9801805720        5.1844975841       13.1449136648  W2        12499           0.0000000000
     36318     12106  TIP3      H2            -47.7437305720        5.2807475841       14.4486036648  W2        12499           0.0000000000
     36319     12107  TIP3      OH2           -50.5263705720        1.7430775841        8.5719836648  W2        12500           0.0000000000
     36320     12107  TIP3      H1            -51.4372605720        1.7997575841        8.8605836648  W2        12500           0.0000000000
     36321     12107  TIP3      H2            -50.0210805720        1.6826275841        9.3827036648  W2        12500           0.0000000000
     36322     12108  TIP3      OH2           -55.6980305720        3.3717075841        7.3987436648  W2        12501           0.0000000000
     36323     12108  TIP3      H1            -56.5872305720        3.4712575841        7.0587036648  W2        12501           0.0000000000
     36324     12108  TIP3      H2            -55.4015405720        2.5300075841        7.0525336648  W2        12501           0.0000000000
     36325     12109  TIP3      OH2           -52.0448505720        3.3719675841        5.0552036648  W2        12502           0.0000000000
     36326     12109  TIP3      H1            -51.1133005720        3.5009675841        5.2335136648  W2        12502           0.0000000000
     36327     12109  TIP3      H2            -52.2598205720        4.0413975841        4.4056736648  W2        12502           0.0000000000
     36328     12110  TIP3      OH2           -46.1211805720        0.9777075841       11.8361636648  W2        12503           0.0000000000
     36329     12110  TIP3      H1            -46.7980205720        1.1090175841       12.5001336648  W2        12503           0.0000000000
     36330     12110  TIP3      H2            -46.6066905720        0.8226575841       11.0259336648  W2        12503           0.0000000000
     36331     12111  TIP3      OH2           -53.3708305720        4.5661875841        2.6218136648  W2        12504           0.0000000000
     36332     12111  TIP3      H1            -53.9133205720        4.1865675841        1.9305736648  W2        12504           0.0000000000
     36333     12111  TIP3      H2            -52.5373405720        4.7606575841        2.1932236648  W2        12504           0.0000000000
     36334     12112  TIP3      OH2           -55.2356905720        9.1233775841       17.7209736648  W2        12506           0.0000000000
     36335     12112  TIP3      H1            -54.5034505720        9.3779675841       18.2824236648  W2        12506           0.0000000000
     36336     12112  TIP3      H2            -56.0158205720        9.3279175841       18.2365136648  W2        12506           0.0000000000
     36337     12113  TIP3      OH2           -49.2064005720        4.5303775841       10.4589436648  W2        12507           0.0000000000
     36338     12113  TIP3      H1            -48.6420605720        3.9840375841        9.9119036648  W2        12507           0.0000000000
     36339     12113  TIP3      H2            -49.3540605720        4.0085675841       11.2477036648  W2        12507           0.0000000000
     36340     12114  TIP3      OH2           -54.2044305720        0.6669875841        6.8774236648  W2        12508           0.0000000000
     36341     12114  TIP3      H1            -54.5214805720       -0.2354824159        6.8419636648  W2        12508           0.0000000000
     36342     12114  TIP3      H2            -53.4230205720        0.6687275841        6.3245836648  W2        12508           0.0000000000
     36343     12115  TIP3      OH2           -50.5798105720        2.9189875841       12.8729836648  W2        12509           0.0000000000
     36344     12115  TIP3      H1            -51.4152805720        3.3729375841       12.9832236648  W2        12509           0.0000000000
     36345     12115  TIP3      H2            -50.0557505720        3.1948375841       13.6249736648  W2        12509           0.0000000000
     36346     12116  TIP3      OH2           -50.0355505720        9.1317575841        4.5576236648  W2        12510           0.0000000000
     36347     12116  TIP3      H1            -50.7804505720        8.6242875841        4.2354136648  W2        12510           0.0000000000
     36348     12116  TIP3      H2            -50.1698305720        9.1805575841        5.5041036648  W2        12510           0.0000000000
     36349     12117  TIP3      OH2           -42.8856605720        8.2645775841       13.3443836648  W2        12511           0.0000000000
     36350     12117  TIP3      H1            -42.2437805720        8.7212075841       12.8006036648  W2        12511           0.0000000000
     36351     12117  TIP3      H2            -43.7159705720        8.3778175841       12.8817936648  W2        12511           0.0000000000
     36352     12118  TIP3      OH2           -46.1378705720        1.9457475841        2.7568836648  W2        12512           0.0000000000
     36353     12118  TIP3      H1            -47.0764505720        2.0573075841        2.6057636648  W2        12512           0.0000000000
     36354     12118  TIP3      H2            -45.8406605720        2.8024375841        3.0634536648  W2        12512           0.0000000000
     36355     12119  TIP3      OH2           -48.5163405720        9.3160875841       15.7945336648  W2        12513           0.0000000000
     36356     12119  TIP3      H1            -48.8617305720        8.9343275841       16.6014936648  W2        12513           0.0000000000
     36357     12119  TIP3      H2            -48.7163305720       10.2494475841       15.8658236648  W2        12513           0.0000000000
     36358     12120  TIP3      OH2           -45.4195205720        3.8130175841        4.4176236648  W2        12514           0.0000000000
     36359     12120  TIP3      H1            -44.5276205720        3.6755175841        4.7367436648  W2        12514           0.0000000000
     36360     12120  TIP3      H2            -45.3631605720        4.6036275841        3.8809736648  W2        12514           0.0000000000
     36361     12121  TIP3      OH2           -54.9107205720        8.4267575841       10.3274136648  W2        12515           0.0000000000
     36362     12121  TIP3      H1            -54.1660005720        8.4243275841        9.7260636648  W2        12515           0.0000000000
     36363     12121  TIP3      H2            -54.8330605720        7.6031375841       10.8089236648  W2        12515           0.0000000000
     36364     12122  TIP3      OH2           -47.9101405720       10.5901875841        3.5830836648  W2        12516           0.0000000000
     36365     12122  TIP3      H1            -48.2053005720       11.4169775841        3.9645636648  W2        12516           0.0000000000
     36366     12122  TIP3      H2            -48.6131405720        9.9708775841        3.7792236648  W2        12516           0.0000000000
     36367     12123  TIP3      OH2           -57.9027505720        6.8874475841       15.6422636648  W2        12517           0.0000000000
     36368     12123  TIP3      H1            -57.6798905720        6.4694075841       16.4740136648  W2        12517           0.0000000000
     36369     12123  TIP3      H2            -58.5047405720        6.2749475841       15.2195436648  W2        12517           0.0000000000
     36370     12124  TIP3      OH2           -46.2659805720       11.7776375841       15.7450336648  W2        12519           0.0000000000
     36371     12124  TIP3      H1            -47.1665505720       11.9608975841       15.4774236648  W2        12519           0.0000000000
     36372     12124  TIP3      H2            -46.2318705720       12.0365675841       16.6659136648  W2        12519           0.0000000000
     36373     12125  TIP3      OH2           -40.5346505720        4.0224275841        4.1122936648  W2        12520           0.0000000000
     36374     12125  TIP3      H1            -41.0890205720        3.6262275841        3.4400436648  W2        12520           0.0000000000
     36375     12125  TIP3      H2            -40.4342905720        4.9329475841        3.8346236648  W2        12520           0.0000000000
     36376     12126  TIP3      OH2           -40.5714505720        9.8225975841       16.9494436648  W2        12521           0.0000000000
     36377     12126  TIP3      H1            -41.4226005720       10.0609775841       16.5820836648  W2        12521           0.0000000000
     36378     12126  TIP3      H2            -39.9811105720        9.8059175841       16.1961536648  W2        12521           0.0000000000
     36379     12127  TIP3      OH2           -42.2394805720       12.8084675841        4.5775036648  W2        12522           0.0000000000
     36380     12127  TIP3      H1            -42.6123705720       11.9828475841        4.8865636648  W2        12522           0.0000000000
     36381     12127  TIP3      H2            -41.9621305720       12.6254075841        3.6798436648  W2        12522           0.0000000000
     36382     12128  TIP3      OH2           -45.0790905720        7.6164175841       11.5986936648  W2        12523           0.0000000000
     36383     12128  TIP3      H1            -46.0074005720        7.3846075841       11.5716236648  W2        12523           0.0000000000
     36384     12128  TIP3      H2            -44.6279805720        6.8393975841       11.2685736648  W2        12523           0.0000000000
     36385     12129  TIP3      OH2           -52.5357805720       11.9445775841        7.7315636648  W2        12524           0.0000000000
     36386     12129  TIP3      H1            -52.0085605720       12.7180175841        7.5314436648  W2        12524           0.0000000000
     36387     12129  TIP3      H2            -53.4159305720       12.1694975841        7.4299636648  W2        12524           0.0000000000
     36388     12130  TIP3      OH2           -56.7810105720        6.8069875841        2.3188036648  W2        12525           0.0000000000
     36389     12130  TIP3      H1            -56.1650205720        7.4337075841        2.6982836648  W2        12525           0.0000000000
     36390     12130  TIP3      H2            -57.6427505720        7.1229675841        2.5904536648  W2        12525           0.0000000000
     36391     12131  TIP3      OH2           -51.1085505720        9.6075675841        7.3079936648  W2        12526           0.0000000000
     36392     12131  TIP3      H1            -51.3495505720       10.5330075841        7.3495236648  W2        12526           0.0000000000
     36393     12131  TIP3      H2            -51.8491905720        9.1486975841        7.7043836648  W2        12526           0.0000000000
     36394     12132  TIP3      OH2           -50.5938905720       13.7569275841       13.6231036648  W2        12527           0.0000000000
     36395     12132  TIP3      H1            -50.2314205720       14.6114875841       13.3895436648  W2        12527           0.0000000000
     36396     12132  TIP3      H2            -50.0623705720       13.4650875841       14.3637336648  W2        12527           0.0000000000
     36397     12133  TIP3      OH2           -52.4254705720       14.6293275841        6.8532136648  W2        12528           0.0000000000
     36398     12133  TIP3      H1            -53.3754205720       14.7350675841        6.9045436648  W2        12528           0.0000000000
     36399     12133  TIP3      H2            -52.0736605720       15.4500675841        7.1979636648  W2        12528           0.0000000000
     36400     12134  TIP3      OH2           -47.0498105720        9.8559975841       13.3236636648  W2        12529           0.0000000000
     36401     12134  TIP3      H1            -47.4756805720        9.6281675841       14.1500636648  W2        12529           0.0000000000
     36402     12134  TIP3      H2            -46.4692305720        9.1171775841       13.1411936648  W2        12529           0.0000000000
     36403     12135  TIP3      OH2           -44.8469205720       10.7850475841        2.3975636648  W2        12530           0.0000000000
     36404     12135  TIP3      H1            -44.4936105720       10.4050275841        3.2019136648  W2        12530           0.0000000000
     36405     12135  TIP3      H2            -45.7955705720       10.6915275841        2.4844936648  W2        12530           0.0000000000
     36406     12136  TIP3      OH2           -44.3913905720       14.4079475841       15.7931436648  W2        12531           0.0000000000
     36407     12136  TIP3      H1            -44.9930705720       13.8522375841       15.2977736648  W2        12531           0.0000000000
     36408     12136  TIP3      H2            -44.1100205720       15.0749275841       15.1668836648  W2        12531           0.0000000000
     36409     12137  TIP3      OH2           -40.3434805720       15.2642975841        2.5985836648  W2        12532           0.0000000000
     36410     12137  TIP3      H1            -39.5996905720       15.8503475841        2.4587436648  W2        12532           0.0000000000
     36411     12137  TIP3      H2            -41.0376705720       15.8328775841        2.9318236648  W2        12532           0.0000000000
     36412     12138  TIP3      OH2           -56.2688005720        1.6407175841       15.2004036648  W2        12533           0.0000000000
     36413     12138  TIP3      H1            -57.1615705720        1.9792575841       15.1328036648  W2        12533           0.0000000000
     36414     12138  TIP3      H2            -56.3675205720        0.7853275841       15.6184836648  W2        12533           0.0000000000
     36415     12139  TIP3      OH2           -43.9809905720        9.4572475841        4.6243536648  W2        12534           0.0000000000
     36416     12139  TIP3      H1            -44.2582305720        8.7291775841        5.1804636648  W2        12534           0.0000000000
     36417     12139  TIP3      H2            -43.0536905720        9.5764475841        4.8296136648  W2        12534           0.0000000000
     36418     12140  TIP3      OH2           -56.6176005720       13.4451575841       13.6353436648  W2        12535           0.0000000000
     36419     12140  TIP3      H1            -56.4005705720       12.5133975841       13.6043136648  W2        12535           0.0000000000
     36420     12140  TIP3      H2            -56.3712505720       13.7196575841       14.5186236648  W2        12535           0.0000000000
     36421     12141  TIP3      OH2           -50.7561405720       11.8966575841        0.8445636648  W2        12536           0.0000000000
     36422     12141  TIP3      H1            -50.5171605720       11.1484675841        0.2974536648  W2        12536           0.0000000000
     36423     12141  TIP3      H2            -51.0250105720       11.5088275841        1.6773436648  W2        12536           0.0000000000
     36424     12142  TIP3      OH2           -51.8190805720       11.4670375841        3.3008236648  W2        12537           0.0000000000
     36425     12142  TIP3      H1            -51.6722805720       10.9470175841        4.0909136648  W2        12537           0.0000000000
     36426     12142  TIP3      H2            -51.8219105720       12.3737975841        3.6074136648  W2        12537           0.0000000000
     36427     12143  TIP3      OH2           -55.3659705720        8.7193675841        3.8113636648  W2        12538           0.0000000000
     36428     12143  TIP3      H1            -56.0520405720        9.0716175841        4.3783336648  W2        12538           0.0000000000
     36429     12143  TIP3      H2            -54.8431805720        9.4823275841        3.5647936648  W2        12538           0.0000000000
     36430     12144  TIP3      OH2           -47.5344605720        1.3817475841       14.0902636648  W2        12539           0.0000000000
     36431     12144  TIP3      H1            -46.8356705720        1.4556175841       14.7402336648  W2        12539           0.0000000000
     36432     12144  TIP3      H2            -47.9153205720        0.5172475841       14.2445536648  W2        12539           0.0000000000
     36433     12145  TIP3      OH2           -46.7499705720        1.0339175841        5.1874936648  W2        12540           0.0000000000
     36434     12145  TIP3      H1            -46.5301405720        1.5054575841        4.3840336648  W2        12540           0.0000000000
     36435     12145  TIP3      H2            -46.1915705720        1.4281775841        5.8575536648  W2        12540           0.0000000000
     36436     12146  TIP3      OH2           -49.0813605720       13.1643975841        4.0502436648  W2        12541           0.0000000000
     36437     12146  TIP3      H1            -49.8977505720       13.6613675841        4.1026736648  W2        12541           0.0000000000
     36438     12146  TIP3      H2            -48.5517305720       13.6397475841        3.4101236648  W2        12541           0.0000000000
     36439     12147  TIP3      OH2           -49.5499805720        2.7617975841        6.0223336648  W2        12542           0.0000000000
     36440     12147  TIP3      H1            -48.7377205720        3.2661175841        6.0685036648  W2        12542           0.0000000000
     36441     12147  TIP3      H2            -49.7946805720        2.6167675841        6.9362936648  W2        12542           0.0000000000
     36442     12148  TIP3      OH2           -49.0143405720        3.7480675841       15.2069936648  W2        12543           0.0000000000
     36443     12148  TIP3      H1            -48.8953105720        4.3216075841       15.9640336648  W2        12543           0.0000000000
     36444     12148  TIP3      H2            -48.3588805720        3.0600075841       15.3217736648  W2        12543           0.0000000000
     36445     12149  TIP3      OH2           -48.6663105720       -0.1569024159        6.9604436648  W2        12544           0.0000000000
     36446     12149  TIP3      H1            -49.0129605720        0.4601575841        7.6048736648  W2        12544           0.0000000000
     36447     12149  TIP3      H2            -48.0076205720        0.3436675841        6.4789936648  W2        12544           0.0000000000
     36448     12150  TIP3      OH2           -51.7430505720       14.2081175841        4.0319336648  W2        12545           0.0000000000
     36449     12150  TIP3      H1            -51.5821805720       15.0078675841        3.5311936648  W2        12545           0.0000000000
     36450     12150  TIP3      H2            -51.9402705720       14.5147175841        4.9169936648  W2        12545           0.0000000000
     36451     12151  TIP3      OH2           -53.0086105720        0.9060375841        3.6476936648  W2        12546           0.0000000000
     36452     12151  TIP3      H1            -53.0921305720        1.7943475841        3.9943336648  W2        12546           0.0000000000
     36453     12151  TIP3      H2            -52.1185805720        0.6407075841        3.8793736648  W2        12546           0.0000000000
     36454     12152  TIP3      OH2           -42.8097605720        1.6550975841       16.0419636648  W2        12547           0.0000000000
     36455     12152  TIP3      H1            -43.7261805720        1.9172675841       15.9543336648  W2        12547           0.0000000000
     36456     12152  TIP3      H2            -42.4742605720        1.6519975841       15.1454936648  W2        12547           0.0000000000
     36457     12153  TIP3      OH2           -44.2076605720        5.4051975841       10.1376936648  W2        12548           0.0000000000
     36458     12153  TIP3      H1            -45.0052205720        4.9902175841        9.8091936648  W2        12548           0.0000000000
     36459     12153  TIP3      H2            -43.7625505720        4.7145675841       10.6287436648  W2        12548           0.0000000000
     36460     12154  TIP3      OH2           -54.7500805720       11.3332575841        2.7081436648  W2        12549           0.0000000000
     36461     12154  TIP3      H1            -54.1579305720       12.0327375841        2.9843836648  W2        12549           0.0000000000
     36462     12154  TIP3      H2            -54.2907805720       10.9002075841        1.9886036648  W2        12549           0.0000000000
     36463     12155  TIP3      OH2           -56.4341605720        3.9975575841        1.8240836648  W2        12550           0.0000000000
     36464     12155  TIP3      H1            -56.4789005720        4.9368675841        2.0027836648  W2        12550           0.0000000000
     36465     12155  TIP3      H2            -57.3218405720        3.7620475841        1.5542936648  W2        12550           0.0000000000
     36466     12156  TIP3      OH2           -43.1212005720       14.6614475841       11.7600436648  W2        12551           0.0000000000
     36467     12156  TIP3      H1            -43.2767705720       15.3398875841       11.1029736648  W2        12551           0.0000000000
     36468     12156  TIP3      H2            -42.1885605720       14.7333775841       11.9631036648  W2        12551           0.0000000000
     36469     12157  TIP3      OH2           -55.6259605720       -1.2207824159       10.4971836648  W2        12552           0.0000000000
     36470     12157  TIP3      H1            -55.8549805720       -1.1615324159        9.5696836648  W2        12552           0.0000000000
     36471     12157  TIP3      H2            -56.0686205720       -2.0122324159       10.8035936648  W2        12552           0.0000000000
     36472     12158  TIP3      OH2           -56.6956305720       12.7199275841        6.6577636648  W2        12553           0.0000000000
     36473     12158  TIP3      H1            -57.5277705720       13.1921975841        6.6849036648  W2        12553           0.0000000000
     36474     12158  TIP3      H2            -56.1498005720       13.2296875841        6.0590736648  W2        12553           0.0000000000
     36475     12159  TIP3      OH2           -48.7179605720       13.7597975841        0.9831636648  W2        12556           0.0000000000
     36476     12159  TIP3      H1            -49.3618605720       13.1286575841        1.3045336648  W2        12556           0.0000000000
     36477     12159  TIP3      H2            -47.9561305720       13.2285975841        0.7515136648  W2        12556           0.0000000000
     36478     12160  TIP3      OH2           -44.1136705720       13.5767875841        1.2169636648  W2        12558           0.0000000000
     36479     12160  TIP3      H1            -43.8306305720       12.7823075841        1.6696536648  W2        12558           0.0000000000
     36480     12160  TIP3      H2            -43.3738805720       13.8098875841        0.6560736648  W2        12558           0.0000000000
     36481     12161  TIP3      OH2           -53.1589405720        9.4862775841        1.0744536648  W2        12560           0.0000000000
     36482     12161  TIP3      H1            -53.0945305720        8.6922375841        1.6050936648  W2        12560           0.0000000000
     36483     12161  TIP3      H2            -52.5060205720        9.3675575841        0.3846536648  W2        12560           0.0000000000
     36484     12162  TIP3      OH2           -47.8066005720       10.5334475841        0.8102536648  W2        12562           0.0000000000
     36485     12162  TIP3      H1            -48.0751905720       10.7136575841        1.7111436648  W2        12562           0.0000000000
     36486     12162  TIP3      H2            -48.0130405720        9.6080675841        0.6788336648  W2        12562           0.0000000000
     36487     12163  TIP3      OH2           -45.1101805720        9.0282475841       15.7578636648  W2        12563           0.0000000000
     36488     12163  TIP3      H1            -44.3647005720        9.6166175841       15.6382636648  W2        12563           0.0000000000
     36489     12163  TIP3      H2            -45.8675005720        9.6102175841       15.8211736648  W2        12563           0.0000000000
     36490     12164  TIP3      OH2           -52.0095605720        7.4588975841        3.3802536648  W2        12565           0.0000000000
     36491     12164  TIP3      H1            -52.4693605720        6.9747275841        4.0661036648  W2        12565           0.0000000000
     36492     12164  TIP3      H2            -51.7546905720        6.7904375841        2.7443036648  W2        12565           0.0000000000
     36493     12165  TIP3      OH2           -52.7206305720        5.3516075841       15.7362136648  W2        12566           0.0000000000
     36494     12165  TIP3      H1            -53.3390205720        6.0262675841       16.0166836648  W2        12566           0.0000000000
     36495     12165  TIP3      H2            -52.3765105720        5.6729975841       14.9028336648  W2        12566           0.0000000000
     36496     12166  TIP3      OH2           -50.9385205720        5.7020775841        1.6425736648  W2        12567           0.0000000000
     36497     12166  TIP3      H1            -51.1190205720        5.5471975841        0.7154036648  W2        12567           0.0000000000
     36498     12166  TIP3      H2            -49.9884705720        5.8099475841        1.6873636648  W2        12567           0.0000000000
     36499     12167  TIP3      OH2           -41.5486905720        8.0564975841        1.0883836648  W2        12569           0.0000000000
     36500     12167  TIP3      H1            -41.8222105720        7.6320475841        0.2752136648  W2        12569           0.0000000000
     36501     12167  TIP3      H2            -41.5092805720        8.9879475841        0.8714236648  W2        12569           0.0000000000
     36502     12168  TIP3      OH2           -52.3812605720        2.7066875841       16.8185236648  W2        12570           0.0000000000
     36503     12168  TIP3      H1            -52.2311705720        1.9778175841       16.2164936648  W2        12570           0.0000000000
     36504     12168  TIP3      H2            -52.3790205720        3.4838575841       16.2597436648  W2        12570           0.0000000000
     36505     12169  TIP3      OH2           -51.9686905720        1.0762675841       14.3112636648  W2        12571           0.0000000000
     36506     12169  TIP3      H1            -51.4329405720        1.5279375841       13.6591936648  W2        12571           0.0000000000
     36507     12169  TIP3      H2            -52.8207305720        0.9682475841       13.8886736648  W2        12571           0.0000000000
     36508     12170  TIP3      OH2           -50.3868505720        6.5158875841       14.5507836648  W2        12572           0.0000000000
     36509     12170  TIP3      H1            -49.6363705720        6.3596375841       13.9775636648  W2        12572           0.0000000000
     36510     12170  TIP3      H2            -50.7260205720        7.3675475841       14.2753336648  W2        12572           0.0000000000
     36511     12171  TIP3      OH2           -44.6545105720        7.1195875841       17.6565836648  W2        12574           0.0000000000
     36512     12171  TIP3      H1            -44.9360105720        7.8290475841       17.0789636648  W2        12574           0.0000000000
     36513     12171  TIP3      H2            -43.7120805720        7.0468875841       17.5057036648  W2        12574           0.0000000000
     36514     12172  TIP3      OH2           -51.1631405720       -1.4671624159       14.7426236648  W2        12576           0.0000000000
     36515     12172  TIP3      H1            -51.2611805720       -0.5208424159       14.6372436648  W2        12576           0.0000000000
     36516     12172  TIP3      H2            -51.9055205720       -1.8397824159       14.2669736648  W2        12576           0.0000000000
     36517     12173  TIP3      OH2           -47.1834305720        1.9817275841       17.3818136648  W2        12578           0.0000000000
     36518     12173  TIP3      H1            -48.1308905720        2.0136975841       17.5141436648  W2        12578           0.0000000000
     36519     12173  TIP3      H2            -46.8707605720        1.3564375841       18.0356336648  W2        12578           0.0000000000
     36520     12174  TIP3      OH2           -50.9413305720       -2.1734224159       17.4139036648  W2        12581           0.0000000000
     36521     12174  TIP3      H1            -50.2294905720       -2.8132024159       17.3998136648  W2        12581           0.0000000000
     36522     12174  TIP3      H2            -51.0422905720       -1.9065924159       16.5002136648  W2        12581           0.0000000000
     36523     12175  TIP3      OH2           -51.0413505720       16.3924475841        2.6439336648  W2        12583           0.0000000000
     36524     12175  TIP3      H1            -50.1082805720       16.5503175841        2.7877736648  W2        12583           0.0000000000
     36525     12175  TIP3      H2            -51.3054705720       17.0677475841        2.0190836648  W2        12583           0.0000000000
     36526     12176  TIP3      OH2           -57.4728605720       11.0288275841        2.1267436648  W2        12584           0.0000000000
     36527     12176  TIP3      H1            -56.5589405720       11.1077175841        2.4001336648  W2        12584           0.0000000000
     36528     12176  TIP3      H2            -57.4655505720       10.3417875841        1.4603036648  W2        12584           0.0000000000
     36529     12177  TIP3      OH2           -58.8238005720       16.4216775841        7.2041336648  W2        12585           0.0000000000
     36530     12177  TIP3      H1            -59.4710905720       15.9598475841        6.6712536648  W2        12585           0.0000000000
     36531     12177  TIP3      H2            -58.4693405720       15.7500075841        7.7867536648  W2        12585           0.0000000000
     36532     12178  TIP3      OH2           -57.9538805720       14.5023775841        9.0087536648  W2        12586           0.0000000000
     36533     12178  TIP3      H1            -58.2882005720       13.6221075841        9.1807736648  W2        12586           0.0000000000
     36534     12178  TIP3      H2            -57.7316405720       14.8478775841        9.8733136648  W2        12586           0.0000000000
     36535     12179  TIP3      OH2           -40.4054005720       15.3120175841       11.9892336648  W2        12587           0.0000000000
     36536     12179  TIP3      H1            -40.4267305720       15.4968575841       12.9281736648  W2        12587           0.0000000000
     36537     12179  TIP3      H2            -39.7147805720       15.8804175841       11.6483736648  W2        12587           0.0000000000
     36538     12180  TIP3      OH2           -40.8421105720       14.8791275841       14.9111436648  W2        12588           0.0000000000
     36539     12180  TIP3      H1            -41.3292405720       14.1435375841       14.5398836648  W2        12588           0.0000000000
     36540     12180  TIP3      H2            -40.2928405720       14.4855175841       15.5890836648  W2        12588           0.0000000000
     36541     12181  TIP3      OH2           -41.0904105720        8.9253075841        5.0634236648  W2        12590           0.0000000000
     36542     12181  TIP3      H1            -40.2402705720        9.3463975841        5.1905836648  W2        12590           0.0000000000
     36543     12181  TIP3      H2            -41.0849005720        8.1853175841        5.6705636648  W2        12590           0.0000000000
     36544     12182  TIP3      OH2           -40.6958505720        6.9790475841        6.8869936648  W2        12591           0.0000000000
     36545     12182  TIP3      H1            -41.4223905720        6.4993075841        7.2847536648  W2        12591           0.0000000000
     36546     12182  TIP3      H2            -40.1145205720        7.1845175841        7.6191536648  W2        12591           0.0000000000
     36547     12183  TIP3      OH2           -40.9367305720        9.7637975841       11.8347536648  W2        12592           0.0000000000
     36548     12183  TIP3      H1            -40.1033105720        9.3857975841       11.5541136648  W2        12592           0.0000000000
     36549     12183  TIP3      H2            -40.8247005720       10.7069175841       11.7156636648  W2        12592           0.0000000000
     36550     12184  TIP3      OH2           -42.4505005720       12.6415475841       14.1415936648  W2        12593           0.0000000000
     36551     12184  TIP3      H1            -43.0979705720       12.9666975841       14.7671136648  W2        12593           0.0000000000
     36552     12184  TIP3      H2            -42.9681005720       12.2013175841       13.4674236648  W2        12593           0.0000000000
     36553     12185  TIP3      OH2           -40.4275405720        6.8798975841        3.2781236648  W2        12594           0.0000000000
     36554     12185  TIP3      H1            -40.9494305720        7.2363075841        2.5592136648  W2        12594           0.0000000000
     36555     12185  TIP3      H2            -40.4606205720        7.5546775841        3.9562136648  W2        12594           0.0000000000
     36556     12186  TIP3      OH2           -42.0786405720        4.1194575841        1.8288336648  W2        12595           0.0000000000
     36557     12186  TIP3      H1            -41.9822005720        4.7861575841        1.1488036648  W2        12595           0.0000000000
     36558     12186  TIP3      H2            -42.2186805720        3.3040875841        1.3473836648  W2        12595           0.0000000000
     36559     12187  TIP3      OH2           -42.9091705720        5.4996975841        7.4498636648  W2        12596           0.0000000000
     36560     12187  TIP3      H1            -43.0592905720        4.5545575841        7.4296436648  W2        12596           0.0000000000
     36561     12187  TIP3      H2            -43.2627205720        5.7808375841        8.2937736648  W2        12596           0.0000000000
     36562     12188  TIP3      OH2           -57.8739305720        7.5779175841       11.4602436648  W2        12597           0.0000000000
     36563     12188  TIP3      H1            -57.6896405720        7.4960875841       10.5245336648  W2        12597           0.0000000000
     36564     12188  TIP3      H2            -57.0246405720        7.4536175841       11.8838836648  W2        12597           0.0000000000
     36565     12189  TIP3      OH2           -42.0528805720        7.4700275841       17.0886936648  W2        12598           0.0000000000
     36566     12189  TIP3      H1            -41.4701505720        6.7352575841       17.2804136648  W2        12598           0.0000000000
     36567     12189  TIP3      H2            -41.4889505720        8.2420575841       17.1352736648  W2        12598           0.0000000000
     36568     12190  TIP3      OH2           -40.5561705720        5.3726075841       17.7732336648  W2        12599           0.0000000000
     36569     12190  TIP3      H1            -41.4195005720        4.9938175841       17.6077036648  W2        12599           0.0000000000
     36570     12190  TIP3      H2            -39.9518005720        4.6340875841       17.6988136648  W2        12599           0.0000000000
     36571     12191  TIP3      OH2           -42.8312605720        1.5274375841        0.9463836648  W2        12600           0.0000000000
     36572     12191  TIP3      H1            -42.2206805720        1.1561175841        1.5832036648  W2        12600           0.0000000000
     36573     12191  TIP3      H2            -43.6681105720        1.1061275841        1.1423836648  W2        12600           0.0000000000
     36574     12192  TIP3      OH2           -43.1986905720        3.0822775841        5.9123736648  W2        12601           0.0000000000
     36575     12192  TIP3      H1            -42.9189805720        2.1753175841        6.0365436648  W2        12601           0.0000000000
     36576     12192  TIP3      H2            -42.4395205720        3.5164275841        5.5232936648  W2        12601           0.0000000000
     36577     12193  TIP3      OH2           -42.5868605720        3.6640175841       11.3482636648  W2        12602           0.0000000000
     36578     12193  TIP3      H1            -41.6540605720        3.8760075841       11.3138636648  W2        12602           0.0000000000
     36579     12193  TIP3      H2            -42.8221105720        3.7652275841       12.2705636648  W2        12602           0.0000000000
     36580     12194  TIP3      OH2           -42.5576705720        4.4005475841       14.1242036648  W2        12603           0.0000000000
     36581     12194  TIP3      H1            -43.4005405720        4.6685875841       14.4901836648  W2        12603           0.0000000000
     36582     12194  TIP3      H2            -42.1152405720        5.2227375841       13.9133136648  W2        12603           0.0000000000
     36583     12195  TIP3      OH2           -58.2764505720        2.8484175841       17.6011236648  W2        12604           0.0000000000
     36584     12195  TIP3      H1            -57.3569605720        2.7262475841       17.8374336648  W2        12604           0.0000000000
     36585     12195  TIP3      H2            -58.7260005720        2.0983875841       17.9904736648  W2        12604           0.0000000000
     36586     12196  TIP3      OH2           -42.5852105720        0.3452075841        5.9605736648  W2        12606           0.0000000000
     36587     12196  TIP3      H1            -42.4027105720       -0.1036424159        6.7860736648  W2        12606           0.0000000000
     36588     12196  TIP3      H2            -43.1849205720       -0.2393524159        5.4970336648  W2        12606           0.0000000000
     36589     12197  TIP3      OH2           -57.0552005720        1.1605775841       10.4924136648  W2        12607           0.0000000000
     36590     12197  TIP3      H1            -56.6100405720        0.3688275841       10.7943836648  W2        12607           0.0000000000
     36591     12197  TIP3      H2            -56.5889005720        1.8770975841       10.9229736648  W2        12607           0.0000000000
     36592     12198  TIP3      OH2           -58.7511705720        4.1598775841       11.5614336648  W2        12608           0.0000000000
     36593     12198  TIP3      H1            -58.2591905720        3.9389275841       10.7706336648  W2        12608           0.0000000000
     36594     12198  TIP3      H2            -58.3890805720        5.0002175841       11.8423836648  W2        12608           0.0000000000
     36595     12199  TIP3      OH2           -40.7185905720        0.4130175841        2.4886036648  W2        12610           0.0000000000
     36596     12199  TIP3      H1            -40.3063305720       -0.3084124159        2.0134036648  W2        12610           0.0000000000
     36597     12199  TIP3      H2            -40.0369405720        1.0824775841        2.5470336648  W2        12610           0.0000000000
     36598     12200  TIP3      OH2           -58.4375205720        0.4177875841        5.6156736648  W2        12611           0.0000000000
     36599     12200  TIP3      H1            -59.3626805720        0.6264475841        5.4862236648  W2        12611           0.0000000000
     36600     12200  TIP3      H2            -57.9835305720        0.9018675841        4.9259036648  W2        12611           0.0000000000
     36601     12201  TIP3      OH2           -43.6668005720       15.4019575841        7.5614136648  W2        12612           0.0000000000
     36602     12201  TIP3      H1            -43.0145105720       15.0541675841        6.9533236648  W2        12612           0.0000000000
     36603     12201  TIP3      H2            -43.1564205720       15.8902775841        8.2073836648  W2        12612           0.0000000000
     36604     12202  TIP3      OH2           -58.4739805720       -0.8443124159       13.9599236648  W2        12613           0.0000000000
     36605     12202  TIP3      H1            -59.1389305720       -1.0902824159       14.6030136648  W2        12613           0.0000000000
     36606     12202  TIP3      H2            -58.9168505720       -0.2222724159       13.3827236648  W2        12613           0.0000000000
     36607     12203  TIP3      OH2           -53.3277605720       13.3052175841       14.3629036648  W2        12615           0.0000000000
     36608     12203  TIP3      H1            -53.7526505720       14.1150675841       14.0803636648  W2        12615           0.0000000000
     36609     12203  TIP3      H2            -52.4234805720       13.3906275841       14.0608836648  W2        12615           0.0000000000
     36610     12204  TIP3      OH2           -49.0166205720       14.7042175841       17.3222736648  W2        12616           0.0000000000
     36611     12204  TIP3      H1            -48.8318705720       14.3708275841       18.2003036648  W2        12616           0.0000000000
     36612     12204  TIP3      H2            -48.1701705720       15.0140775841       17.0001936648  W2        12616           0.0000000000
     36613     12205  TIP3      OH2           -46.6715805720       15.9901075841       16.5664136648  W2        12617           0.0000000000
     36614     12205  TIP3      H1            -45.9946905720       15.3573375841       16.3263336648  W2        12617           0.0000000000
     36615     12205  TIP3      H2            -46.3497005720       16.3911575841       17.3737436648  W2        12617           0.0000000000
     36616     12206  TIP3      OH2           -41.7542005720       -1.4203424159       15.6459136648  W2        12618           0.0000000000
     36617     12206  TIP3      H1            -42.5668505720       -1.0953124159       15.2583836648  W2        12618           0.0000000000
     36618     12206  TIP3      H2            -41.5213505720       -2.1804924159       15.1128236648  W2        12618           0.0000000000
     36619     12207  TIP3      OH2           -55.9260905720       16.5616075841       14.4104336648  W2        12619           0.0000000000
     36620     12207  TIP3      H1            -56.6464505720       17.0017075841       13.9592036648  W2        12619           0.0000000000
     36621     12207  TIP3      H2            -56.2916905720       16.3110775841       15.2588336648  W2        12619           0.0000000000
     36622     12208  TIP3      OH2           -53.4588305720       16.1619975841       13.4401536648  W2        12620           0.0000000000
     36623     12208  TIP3      H1            -54.3236105720       16.2338475841       13.8441636648  W2        12620           0.0000000000
     36624     12208  TIP3      H2            -53.5139305720       16.7087275841       12.6564036648  W2        12620           0.0000000000
     36625     12209  TIP3      OH2           -48.7482705720       16.0498875841       12.6157536648  W2        12621           0.0000000000
     36626     12209  TIP3      H1            -49.2048705720       16.5788575841       11.9615936648  W2        12621           0.0000000000
     36627     12209  TIP3      H2            -48.5854705720       16.6530275841       13.3409836648  W2        12621           0.0000000000
     36628     12210  TIP3      OH2           -46.4206405720       14.9278475841       13.5607836648  W2        12622           0.0000000000
     36629     12210  TIP3      H1            -47.3252705720       15.0928675841       13.2949936648  W2        12622           0.0000000000
     36630     12210  TIP3      H2            -45.9917805720       15.7810675841       13.4951236648  W2        12622           0.0000000000
     36631     12211  TIP3      OH2           -43.8164505720       16.4977575841       13.8555636648  W2        12623           0.0000000000
     36632     12211  TIP3      H1            -43.9982505720       17.4136475841       13.6450536648  W2        12623           0.0000000000
     36633     12211  TIP3      H2            -43.6396705720       16.0874675841       13.0090236648  W2        12623           0.0000000000
     36634     12212  TIP3      OH2           -56.5112805720       15.1848575841       11.3206136648  W2        12624           0.0000000000
     36635     12212  TIP3      H1            -56.5296805720       14.7593675841       12.1778436648  W2        12624           0.0000000000
     36636     12212  TIP3      H2            -55.7064905720       14.8663575841       10.9118336648  W2        12624           0.0000000000
     36637     12213  TIP3      OH2           -54.3699705720       13.8947275841        9.9756036648  W2        12625           0.0000000000
     36638     12213  TIP3      H1            -54.5889005720       12.9784675841       10.1452036648  W2        12625           0.0000000000
     36639     12213  TIP3      H2            -53.5457505720       14.0347675841       10.4417436648  W2        12625           0.0000000000
     36640     12214  TIP3      OH2           -51.8327205720       14.3646575841       10.8244036648  W2        12626           0.0000000000
     36641     12214  TIP3      H1            -51.6201505720       13.4765575841       10.5374936648  W2        12626           0.0000000000
     36642     12214  TIP3      H2            -51.7682105720       14.3304275841       11.7788036648  W2        12626           0.0000000000
     36643     12215  TIP3      OH2           -48.3243505720        0.0287175841        9.9687336648  W2        12627           0.0000000000
     36644     12215  TIP3      H1            -48.9986705720       -0.6007224159       10.2243136648  W2        12627           0.0000000000
     36645     12215  TIP3      H2            -47.7604305720       -0.4553924159        9.3655236648  W2        12627           0.0000000000
     36646     12216  TIP3      OH2           -43.1816305720       -1.8638824159       10.0814436648  W2        12628           0.0000000000
     36647     12216  TIP3      H1            -42.5778705720       -1.3163424159        9.5795436648  W2        12628           0.0000000000
     36648     12216  TIP3      H2            -44.0514305720       -1.5448424159        9.8408536648  W2        12628           0.0000000000
     36649     12217  TIP3      OH2           -41.4545905720       -0.7250124159        8.4145336648  W2        12629           0.0000000000
     36650     12217  TIP3      H1            -40.8428405720       -1.2394424159        7.8878936648  W2        12629           0.0000000000
     36651     12217  TIP3      H2            -41.0722505720        0.1521975841        8.4379736648  W2        12629           0.0000000000
     36652     12218  TIP3      OH2           -55.9976005720       -1.3372524159        7.7907236648  W2        12630           0.0000000000
     36653     12218  TIP3      H1            -56.7746205720       -1.5717624159        7.2833136648  W2        12630           0.0000000000
     36654     12218  TIP3      H2            -55.4672405720       -2.1340424159        7.7995236648  W2        12630           0.0000000000
     36655     12219  TIP3      OH2           -57.1612605720       -1.5394424159        3.5943336648  W2        12631           0.0000000000
     36656     12219  TIP3      H1            -56.7221905720       -0.9283924159        3.0026836648  W2        12631           0.0000000000
     36657     12219  TIP3      H2            -57.7950205720       -1.0010324159        4.0683336648  W2        12631           0.0000000000
     36658     12220  TIP3      OH2           -51.4183405720       -1.4105424159        7.6040336648  W2        12632           0.0000000000
     36659     12220  TIP3      H1            -50.5440005720       -1.0221124159        7.5744636648  W2        12632           0.0000000000
     36660     12220  TIP3      H2            -51.5542605720       -1.6257624159        8.5267536648  W2        12632           0.0000000000
     36661     12221  TIP3      OH2           -45.8615005720       -1.3805624159        9.2532036648  W2        12633           0.0000000000
     36662     12221  TIP3      H1            -45.7853405720       -1.2854024159        8.3038036648  W2        12633           0.0000000000
     36663     12221  TIP3      H2            -46.1365805720       -2.2882724159        9.3821136648  W2        12633           0.0000000000
     36664     12222  TIP3      OH2           -44.5082405720       -1.3547824159        4.9457036648  W2        12634           0.0000000000
     36665     12222  TIP3      H1            -45.2111305720       -0.7398624159        4.7358436648  W2        12634           0.0000000000
     36666     12222  TIP3      H2            -44.9531005720       -2.1921124159        5.0767936648  W2        12634           0.0000000000
     36667     12223  TIP3      OH2           -57.2603105720       14.4087775841        4.4918436648  W2        12635           0.0000000000
     36668     12223  TIP3      H1            -57.9453205720       14.3706675841        3.8243536648  W2        12635           0.0000000000
     36669     12223  TIP3      H2            -57.2565905720       15.3215375841        4.7800536648  W2        12635           0.0000000000
     36670     12224  TIP3      OH2           -55.3003505720        0.3767075841        2.0367436648  W2        12636           0.0000000000
     36671     12224  TIP3      H1            -54.8090105720       -0.2530524159        1.5092936648  W2        12636           0.0000000000
     36672     12224  TIP3      H2            -54.6767205720        0.6726475841        2.6998636648  W2        12636           0.0000000000
     36673     12225  TIP3      OH2           -50.2743405720        0.6698575841        4.4937936648  W2        12637           0.0000000000
     36674     12225  TIP3      H1            -50.0962105720        0.0231775841        5.1766536648  W2        12637           0.0000000000
     36675     12225  TIP3      H2            -50.3277205720        1.5036275841        4.9609036648  W2        12637           0.0000000000
     36676     12226  TIP3      OH2           -48.3959605720       15.6182675841        2.8894636648  W2        12638           0.0000000000
     36677     12226  TIP3      H1            -47.5299405720       15.9850075841        2.7112836648  W2        12638           0.0000000000
     36678     12226  TIP3      H2            -48.6426805720       15.1790675841        2.0755436648  W2        12638           0.0000000000
     36679     12227  TIP3      OH2           -41.6870005720       15.1812975841        5.5685736648  W2        12639           0.0000000000
     36680     12227  TIP3      H1            -41.8812905720       14.4335075841        5.0035336648  W2        12639           0.0000000000
     36681     12227  TIP3      H2            -41.7259905720       15.9393075841        4.9853636648  W2        12639           0.0000000000
     36682     12228  TIP3      OH2           -56.0398005720       -0.8230624159       17.3083436648  W2        12640           0.0000000000
     36683     12228  TIP3      H1            -56.4059805720       -1.5888024159       17.7508136648  W2        12640           0.0000000000
     36684     12228  TIP3      H2            -55.1269505720       -0.7940424159       17.5948536648  W2        12640           0.0000000000
     36685     12229  TIP3      OH2           -55.4421905720       15.3288575841        1.5170536648  W2        12642           0.0000000000
     36686     12229  TIP3      H1            -55.7097305720       15.6151475841        2.3903636648  W2        12642           0.0000000000
     36687     12229  TIP3      H2            -54.6709305720       14.7827775841        1.6693036648  W2        12642           0.0000000000
     36688     12230  TIP3      OH2           -42.4693805720       13.9325375841       17.7187536648  W2        12644           0.0000000000
     36689     12230  TIP3      H1            -43.2511905720       13.7463375841       17.1988136648  W2        12644           0.0000000000
     36690     12230  TIP3      H2            -42.5413905720       14.8619675841       17.9360036648  W2        12644           0.0000000000
     36691     12231  TIP3      OH2           -28.0633405720        7.8189775841        7.7494736648  W2        12645           0.0000000000
     36692     12231  TIP3      H1            -27.9742305720        8.7627975841        7.6171836648  W2        12645           0.0000000000
     36693     12231  TIP3      H2            -28.7015805720        7.5436175841        7.0914136648  W2        12645           0.0000000000
     36694     12232  TIP3      OH2           -29.1302105720        7.0740475841       11.1682936648  W2        12646           0.0000000000
     36695     12232  TIP3      H1            -29.1684605720        6.4276775841       11.8732536648  W2        12646           0.0000000000
     36696     12232  TIP3      H2            -29.4525605720        6.6074875841       10.3971636648  W2        12646           0.0000000000
     36697     12233  TIP3      OH2           -36.7617105720        6.6882575841       12.7612836648  W2        12647           0.0000000000
     36698     12233  TIP3      H1            -36.7205005720        6.0625875841       13.4845236648  W2        12647           0.0000000000
     36699     12233  TIP3      H2            -36.0589405720        7.3121175841       12.9433236648  W2        12647           0.0000000000
     36700     12234  TIP3      OH2           -25.4241905720       10.0130875841        9.4698036648  W2        12648           0.0000000000
     36701     12234  TIP3      H1            -25.8649205720        9.2926875841        9.9203636648  W2        12648           0.0000000000
     36702     12234  TIP3      H2            -25.4372205720       10.7338075841       10.0995736648  W2        12648           0.0000000000
     36703     12235  TIP3      OH2           -35.8384005720       11.1381475841       11.2961936648  W2        12649           0.0000000000
     36704     12235  TIP3      H1            -36.2078805720       10.3361975841       10.9266236648  W2        12649           0.0000000000
     36705     12235  TIP3      H2            -34.8972905720       10.9696375841       11.3425336648  W2        12649           0.0000000000
     36706     12236  TIP3      OH2           -39.2283505720        4.7984075841        6.6890736648  W2        12650           0.0000000000
     36707     12236  TIP3      H1            -39.6760105720        5.6442775841        6.6707236648  W2        12650           0.0000000000
     36708     12236  TIP3      H2            -39.7892305720        4.2188275841        6.1735836648  W2        12650           0.0000000000
     36709     12237  TIP3      OH2           -38.5177405720        6.9603675841        8.8148736648  W2        12651           0.0000000000
     36710     12237  TIP3      H1            -38.3043905720        6.1905275841        9.3421736648  W2        12651           0.0000000000
     36711     12237  TIP3      H2            -37.7799805720        7.0500375841        8.2116336648  W2        12651           0.0000000000
     36712     12238  TIP3      OH2           -28.3126405720       15.1172575841        9.6818436648  W2        12652           0.0000000000
     36713     12238  TIP3      H1            -27.6930005720       14.4407275841        9.4087636648  W2        12652           0.0000000000
     36714     12238  TIP3      H2            -28.5209005720       14.8993375841       10.5903336648  W2        12652           0.0000000000
     36715     12239  TIP3      OH2           -30.7407705720        9.5061875841       11.5743936648  W2        12653           0.0000000000
     36716     12239  TIP3      H1            -30.4369805720        8.8203275841       10.9798036648  W2        12653           0.0000000000
     36717     12239  TIP3      H2            -30.0193705720        9.6250575841       12.1921936648  W2        12653           0.0000000000
     36718     12240  TIP3      OH2           -22.0777905720        1.1077175841       12.4350136648  W2        12654           0.0000000000
     36719     12240  TIP3      H1            -22.0285705720        1.7178375841       13.1709236648  W2        12654           0.0000000000
     36720     12240  TIP3      H2            -21.6522805720        1.5688075841       11.7121236648  W2        12654           0.0000000000
     36721     12241  TIP3      OH2           -27.6000705720        3.9004275841       11.9018736648  W2        12655           0.0000000000
     36722     12241  TIP3      H1            -27.4574805720        2.9541275841       11.9220336648  W2        12655           0.0000000000
     36723     12241  TIP3      H2            -27.7061705720        4.1074075841       10.9733636648  W2        12655           0.0000000000
     36724     12242  TIP3      OH2           -34.4452405720        2.0020675841        9.1743536648  W2        12656           0.0000000000
     36725     12242  TIP3      H1            -34.4021305720        2.8619175841        8.7559836648  W2        12656           0.0000000000
     36726     12242  TIP3      H2            -34.9028305720        1.4495375841        8.5406736648  W2        12656           0.0000000000
     36727     12243  TIP3      OH2           -26.7229705720        2.1326275841        7.5751836648  W2        12657           0.0000000000
     36728     12243  TIP3      H1            -26.0765405720        1.8039475841        8.1999436648  W2        12657           0.0000000000
     36729     12243  TIP3      H2            -26.2130305720        2.6505275841        6.9523236648  W2        12657           0.0000000000
     36730     12244  TIP3      OH2           -37.8250905720        4.3986475841        9.9364936648  W2        12658           0.0000000000
     36731     12244  TIP3      H1            -37.1714305720        3.8488175841       10.3685036648  W2        12658           0.0000000000
     36732     12244  TIP3      H2            -37.8011605720        4.1245475841        9.0196936648  W2        12658           0.0000000000
     36733     12245  TIP3      OH2           -32.6686405720        5.9487775841        9.1516436648  W2        12659           0.0000000000
     36734     12245  TIP3      H1            -32.0525405720        5.4223175841        9.6610436648  W2        12659           0.0000000000
     36735     12245  TIP3      H2            -33.2547605720        5.3086475841        8.7480036648  W2        12659           0.0000000000
     36736     12246  TIP3      OH2           -21.6863305720        2.5856375841       14.6709936648  W2        12660           0.0000000000
     36737     12246  TIP3      H1            -22.3748705720        3.2437075841       14.5756536648  W2        12660           0.0000000000
     36738     12246  TIP3      H2            -21.6708705720        2.3884275841       15.6075336648  W2        12660           0.0000000000
     36739     12247  TIP3      OH2           -35.6350505720        0.9199075841       13.2484336648  W2        12661           0.0000000000
     36740     12247  TIP3      H1            -35.8538805720        1.4499675841       12.4820336648  W2        12661           0.0000000000
     36741     12247  TIP3      H2            -36.3029605720        1.1464575841       13.8955736648  W2        12661           0.0000000000
     36742     12248  TIP3      OH2           -28.2660705720       10.4200175841        6.7923436648  W2        12662           0.0000000000
     36743     12248  TIP3      H1            -28.5615605720       10.0972475841        5.9410336648  W2        12662           0.0000000000
     36744     12248  TIP3      H2            -28.5902905720       11.3196875841        6.8336036648  W2        12662           0.0000000000
     36745     12249  TIP3      OH2           -33.0659105720        8.5954775841       13.5358036648  W2        12663           0.0000000000
     36746     12249  TIP3      H1            -33.8060005720        9.1936275841       13.6393236648  W2        12663           0.0000000000
     36747     12249  TIP3      H2            -32.3519605720        9.1494375841       13.2201636648  W2        12663           0.0000000000
     36748     12250  TIP3      OH2           -24.9591305720        1.4235575841        9.5557736648  W2        12664           0.0000000000
     36749     12250  TIP3      H1            -25.1743305720        0.6578975841       10.0883736648  W2        12664           0.0000000000
     36750     12250  TIP3      H2            -24.3033905720        1.8960175841       10.0686236648  W2        12664           0.0000000000
     36751     12251  TIP3      OH2           -36.0413205720        2.8120875841       11.2006536648  W2        12665           0.0000000000
     36752     12251  TIP3      H1            -35.4276905720        3.4448475841       11.5738936648  W2        12665           0.0000000000
     36753     12251  TIP3      H2            -35.5292505720        2.3395875841       10.5443436648  W2        12665           0.0000000000
     36754     12252  TIP3      OH2           -34.6584805720       10.5597775841       14.3229536648  W2        12666           0.0000000000
     36755     12252  TIP3      H1            -34.6637205720       11.4391275841       13.9448836648  W2        12666           0.0000000000
     36756     12252  TIP3      H2            -35.5120705720       10.4761875841       14.7479436648  W2        12666           0.0000000000
     36757     12253  TIP3      OH2           -38.5373905720       10.2305675841        5.1048836648  W2        12667           0.0000000000
     36758     12253  TIP3      H1            -38.8093005720       10.4596675841        4.2161736648  W2        12667           0.0000000000
     36759     12253  TIP3      H2            -38.4918205720       11.0684475841        5.5654136648  W2        12667           0.0000000000
     36760     12254  TIP3      OH2           -24.9124205720       11.8521575841       11.8177336648  W2        12668           0.0000000000
     36761     12254  TIP3      H1            -25.8540505720       11.9105475841       11.9794236648  W2        12668           0.0000000000
     36762     12254  TIP3      H2            -24.6358105720       12.7582075841       11.6807036648  W2        12668           0.0000000000
     36763     12255  TIP3      OH2           -24.6117205720        0.1386875841       13.2351236648  W2        12669           0.0000000000
     36764     12255  TIP3      H1            -25.3478005720        0.7493975841       13.1972536648  W2        12669           0.0000000000
     36765     12255  TIP3      H2            -23.9283205720        0.5535875841       12.7087636648  W2        12669           0.0000000000
     36766     12256  TIP3      OH2           -31.6085805720       -1.7745824159       10.7009236648  W2        12670           0.0000000000
     36767     12256  TIP3      H1            -31.7261605720       -2.7229824159       10.6467536648  W2        12670           0.0000000000
     36768     12256  TIP3      H2            -32.4635705720       -1.4419724159       10.9740336648  W2        12670           0.0000000000
     36769     12257  TIP3      OH2           -26.6603005720       13.6335075841        8.4428936648  W2        12671           0.0000000000
     36770     12257  TIP3      H1            -26.2350705720       12.9262975841        7.9578536648  W2        12671           0.0000000000
     36771     12257  TIP3      H2            -26.3433005720       14.4347775841        8.0261136648  W2        12671           0.0000000000
     36772     12258  TIP3      OH2           -25.5006505720       11.5343575841        6.9515536648  W2        12672           0.0000000000
     36773     12258  TIP3      H1            -25.7581705720       10.8443675841        6.3401436648  W2        12672           0.0000000000
     36774     12258  TIP3      H2            -25.4295705720       11.0914775841        7.7971436648  W2        12672           0.0000000000
     36775     12259  TIP3      OH2           -23.8146305720       10.1010275841       15.4289036648  W2        12673           0.0000000000
     36776     12259  TIP3      H1            -23.6750005720        9.5092775841       14.6896036648  W2        12673           0.0000000000
     36777     12259  TIP3      H2            -23.6473505720       10.9736175841       15.0727836648  W2        12673           0.0000000000
     36778     12260  TIP3      OH2           -29.3420905720        7.0629775841        5.2015036648  W2        12674           0.0000000000
     36779     12260  TIP3      H1            -30.0535405720        7.5979475841        4.8495536648  W2        12674           0.0000000000
     36780     12260  TIP3      H2            -28.6511305720        7.1181875841        4.5413936648  W2        12674           0.0000000000
     36781     12261  TIP3      OH2           -29.2881705720        5.5204075841        2.2400036648  W2        12675           0.0000000000
     36782     12261  TIP3      H1            -28.5871805720        5.5430975841        2.8914036648  W2        12675           0.0000000000
     36783     12261  TIP3      H2            -28.9858805720        4.8923775841        1.5839336648  W2        12675           0.0000000000
     36784     12262  TIP3      OH2           -21.9727005720        6.4408275841       13.4949436648  W2        12676           0.0000000000
     36785     12262  TIP3      H1            -22.6252905720        7.1353875841       13.5840336648  W2        12676           0.0000000000
     36786     12262  TIP3      H2            -21.5076705720        6.6509175841       12.6851036648  W2        12676           0.0000000000
     36787     12263  TIP3      OH2           -25.9363205720        7.2723075841        6.1530936648  W2        12677           0.0000000000
     36788     12263  TIP3      H1            -26.6682205720        7.5006775841        6.7261536648  W2        12677           0.0000000000
     36789     12263  TIP3      H2            -25.4891005720        6.5585775841        6.6078436648  W2        12677           0.0000000000
     36790     12264  TIP3      OH2           -26.0389705720        5.4465675841       15.2207936648  W2        12678           0.0000000000
     36791     12264  TIP3      H1            -25.9590605720        6.2100075841       15.7926436648  W2        12678           0.0000000000
     36792     12264  TIP3      H2            -26.6402005720        5.7258075841       14.5303036648  W2        12678           0.0000000000
     36793     12265  TIP3      OH2           -34.2909505720        7.9029275841        8.0355936648  W2        12679           0.0000000000
     36794     12265  TIP3      H1            -34.6214305720        7.5322675841        7.2172936648  W2        12679           0.0000000000
     36795     12265  TIP3      H2            -33.7025405720        7.2323275841        8.3824236648  W2        12679           0.0000000000
     36796     12266  TIP3      OH2           -32.9242005720       11.3309875841       10.7168136648  W2        12680           0.0000000000
     36797     12266  TIP3      H1            -33.0190705720       10.7522975841        9.9602736648  W2        12680           0.0000000000
     36798     12266  TIP3      H2            -32.1948405720       10.9595575841       11.2130936648  W2        12680           0.0000000000
     36799     12267  TIP3      OH2           -33.9244005720        6.6714875841       11.6690936648  W2        12681           0.0000000000
     36800     12267  TIP3      H1            -33.3591505720        6.7929075841       10.9062136648  W2        12681           0.0000000000
     36801     12267  TIP3      H2            -33.6055105720        7.3089875841       12.3079436648  W2        12681           0.0000000000
     36802     12268  TIP3      OH2           -27.6151805720       12.1746775841       12.4031436648  W2        12682           0.0000000000
     36803     12268  TIP3      H1            -27.8555205720       12.8369875841       13.0510636648  W2        12682           0.0000000000
     36804     12268  TIP3      H2            -27.8133605720       11.3401975841       12.8281036648  W2        12682           0.0000000000
     36805     12269  TIP3      OH2           -33.0443305720       11.0707575841       16.3862836648  W2        12683           0.0000000000
     36806     12269  TIP3      H1            -33.3555805720       11.8530775841       16.8416036648  W2        12683           0.0000000000
     36807     12269  TIP3      H2            -33.6943105720       10.9176675841       15.7004836648  W2        12683           0.0000000000
     36808     12270  TIP3      OH2           -27.0653705720        6.4345975841        3.8382136648  W2        12684           0.0000000000
     36809     12270  TIP3      H1            -26.4858205720        6.5846275841        4.5851036648  W2        12684           0.0000000000
     36810     12270  TIP3      H2            -26.6513705720        6.9053375841        3.1148536648  W2        12684           0.0000000000
     36811     12271  TIP3      OH2           -36.1243405720        7.2688675841       15.6148536648  W2        12685           0.0000000000
     36812     12271  TIP3      H1            -36.0540205720        7.9195475841       16.3133536648  W2        12685           0.0000000000
     36813     12271  TIP3      H2            -37.0151205720        7.3716175841       15.2799436648  W2        12685           0.0000000000
     36814     12272  TIP3      OH2           -29.3388805720       13.1714475841        7.2735236648  W2        12686           0.0000000000
     36815     12272  TIP3      H1            -28.8651205720       13.4670775841        8.0509436648  W2        12686           0.0000000000
     36816     12272  TIP3      H2            -29.9019505720       13.9096075841        7.0404836648  W2        12686           0.0000000000
     36817     12273  TIP3      OH2           -34.8047405720       13.1422575841       17.1496636648  W2        12687           0.0000000000
     36818     12273  TIP3      H1            -34.7972105720       13.0062275841       16.2022136648  W2        12687           0.0000000000
     36819     12273  TIP3      H2            -35.7207005720       13.0250675841       17.4016636648  W2        12687           0.0000000000
     36820     12274  TIP3      OH2           -23.3665305720       -1.8153624159        3.6511836648  W2        12688           0.0000000000
     36821     12274  TIP3      H1            -24.2664605720       -1.6764624159        3.9462436648  W2        12688           0.0000000000
     36822     12274  TIP3      H2            -23.1146905720       -0.9839024159        3.2493536648  W2        12688           0.0000000000
     36823     12275  TIP3      OH2           -35.3006805720        6.9723575841        5.6248736648  W2        12689           0.0000000000
     36824     12275  TIP3      H1            -35.5925505720        7.7405275841        5.1340036648  W2        12689           0.0000000000
     36825     12275  TIP3      H2            -35.9751605720        6.3129775841        5.4620136648  W2        12689           0.0000000000
     36826     12276  TIP3      OH2           -22.1773905720       12.5508775841        2.0275736648  W2        12690           0.0000000000
     36827     12276  TIP3      H1            -22.1040405720       13.4898975841        2.1981036648  W2        12690           0.0000000000
     36828     12276  TIP3      H2            -21.2718805720       12.2457375841        1.9713036648  W2        12690           0.0000000000
     36829     12277  TIP3      OH2           -39.2076705720        9.3352775841       14.4398536648  W2        12691           0.0000000000
     36830     12277  TIP3      H1            -39.7088305720        9.3072175841       13.6248236648  W2        12691           0.0000000000
     36831     12277  TIP3      H2            -39.2023005720        8.4295975841       14.7495836648  W2        12691           0.0000000000
     36832     12278  TIP3      OH2           -39.4574005720       12.1156575841       11.3238736648  W2        12692           0.0000000000
     36833     12278  TIP3      H1            -38.5113405720       11.9713575841       11.3048236648  W2        12692           0.0000000000
     36834     12278  TIP3      H2            -39.5697705720       12.8999375841       11.8609936648  W2        12692           0.0000000000
     36835     12279  TIP3      OH2           -21.2595505720       12.7816275841       17.0062436648  W2        12693           0.0000000000
     36836     12279  TIP3      H1            -21.3088705720       11.8264375841       16.9690036648  W2        12693           0.0000000000
     36837     12279  TIP3      H2            -22.0863205720       13.0491575841       17.4076236648  W2        12693           0.0000000000
     36838     12280  TIP3      OH2           -30.2811505720       12.3555475841       15.8823836648  W2        12694           0.0000000000
     36839     12280  TIP3      H1            -30.1936905720       13.1820075841       16.3572936648  W2        12694           0.0000000000
     36840     12280  TIP3      H2            -31.1446405720       12.0259275841       16.1313136648  W2        12694           0.0000000000
     36841     12281  TIP3      OH2           -29.8665705720       16.1279175841        5.6884436648  W2        12695           0.0000000000
     36842     12281  TIP3      H1            -29.9419705720       16.0066375841        4.7419636648  W2        12695           0.0000000000
     36843     12281  TIP3      H2            -29.8337005720       17.0771875841        5.8069036648  W2        12695           0.0000000000
     36844     12282  TIP3      OH2           -36.2131905720       14.9166175841        7.4693436648  W2        12696           0.0000000000
     36845     12282  TIP3      H1            -36.0611505720       14.5686575841        8.3479936648  W2        12696           0.0000000000
     36846     12282  TIP3      H2            -37.0641505720       14.5603475841        7.2140636648  W2        12696           0.0000000000
     36847     12283  TIP3      OH2           -26.7649705720       15.2819375841        2.6906836648  W2        12697           0.0000000000
     36848     12283  TIP3      H1            -26.3901305720       14.5375475841        2.2199436648  W2        12697           0.0000000000
     36849     12283  TIP3      H2            -26.7606005720       15.0119975841        3.6090136648  W2        12697           0.0000000000
     36850     12284  TIP3      OH2           -27.0961605720       15.2076475841        5.4399036648  W2        12698           0.0000000000
     36851     12284  TIP3      H1            -28.0311805720       15.3078375841        5.6186036648  W2        12698           0.0000000000
     36852     12284  TIP3      H2            -26.8159705720       14.4982475841        6.0182236648  W2        12698           0.0000000000
     36853     12285  TIP3      OH2           -24.1075705720        4.2748775841       17.4864636648  W2        12699           0.0000000000
     36854     12285  TIP3      H1            -24.5148905720        4.7554375841       16.7657936648  W2        12699           0.0000000000
     36855     12285  TIP3      H2            -24.0670005720        3.3694775841       17.1785436648  W2        12699           0.0000000000
     36856     12286  TIP3      OH2           -36.9586205720       10.6588175841       15.4831336648  W2        12700           0.0000000000
     36857     12286  TIP3      H1            -36.7424905720       10.2973775841       16.3427136648  W2        12700           0.0000000000
     36858     12286  TIP3      H2            -37.8141505720       10.2841975841       15.2734836648  W2        12700           0.0000000000
     36859     12287  TIP3      OH2           -34.3398205720       -0.8711324159       11.4785536648  W2        12701           0.0000000000
     36860     12287  TIP3      H1            -35.2014505720       -0.9583124159       11.0708436648  W2        12701           0.0000000000
     36861     12287  TIP3      H2            -34.3622505720       -0.0151224159       11.9063136648  W2        12701           0.0000000000
     36862     12288  TIP3      OH2           -29.6770405720       -1.1490924159       14.8532536648  W2        12702           0.0000000000
     36863     12288  TIP3      H1            -29.2567305720       -1.5643824159       15.6063136648  W2        12702           0.0000000000
     36864     12288  TIP3      H2            -30.6100805720       -1.3277624159       14.9704536648  W2        12702           0.0000000000
     36865     12289  TIP3      OH2           -26.3505505720        2.6064275841       15.7067036648  W2        12703           0.0000000000
     36866     12289  TIP3      H1            -26.8646005720        2.4806475841       16.5043036648  W2        12703           0.0000000000
     36867     12289  TIP3      H2            -26.5060805720        3.5187375841       15.4623236648  W2        12703           0.0000000000
     36868     12290  TIP3      OH2           -25.5880605720        7.4674275841        1.4680036648  W2        12704           0.0000000000
     36869     12290  TIP3      H1            -25.5459805720        7.2448175841        0.5380036648  W2        12704           0.0000000000
     36870     12290  TIP3      H2            -24.7388505720        7.8661375841        1.6579936648  W2        12704           0.0000000000
     36871     12291  TIP3      OH2           -30.0153105720        1.3432475841        2.1383336648  W2        12705           0.0000000000
     36872     12291  TIP3      H1            -30.2688305720        1.3624075841        3.0611436648  W2        12705           0.0000000000
     36873     12291  TIP3      H2            -30.2721005720        0.4717875841        1.8369536648  W2        12705           0.0000000000
     36874     12292  TIP3      OH2           -34.2488105720        4.0943175841       12.5735736648  W2        12706           0.0000000000
     36875     12292  TIP3      H1            -34.8906005720        4.0540475841       13.2825836648  W2        12706           0.0000000000
     36876     12292  TIP3      H2            -34.2116105720        5.0207875841       12.3358736648  W2        12706           0.0000000000
     36877     12293  TIP3      OH2           -34.2519005720        4.3153275841        7.4855736648  W2        12707           0.0000000000
     36878     12293  TIP3      H1            -35.1446105720        3.9749375841        7.4269536648  W2        12707           0.0000000000
     36879     12293  TIP3      H2            -33.8012405720        3.9384175841        6.7298936648  W2        12707           0.0000000000
     36880     12294  TIP3      OH2           -28.7163505720        4.7313575841        6.3026536648  W2        12708           0.0000000000
     36881     12294  TIP3      H1            -29.1253205720        5.5462175841        6.0111336648  W2        12708           0.0000000000
     36882     12294  TIP3      H2            -27.9957305720        4.5913675841        5.6883636648  W2        12708           0.0000000000
     36883     12295  TIP3      OH2           -29.6141905720        4.9069975841       17.7907236648  W2        12709           0.0000000000
     36884     12295  TIP3      H1            -30.1768105720        4.2021575841       18.1115036648  W2        12709           0.0000000000
     36885     12295  TIP3      H2            -28.7878505720        4.7861875841       18.2584836648  W2        12709           0.0000000000
     36886     12296  TIP3      OH2           -27.7115805720        4.1773975841        9.1166236648  W2        12710           0.0000000000
     36887     12296  TIP3      H1            -27.9071305720        4.7830775841        8.4016836648  W2        12710           0.0000000000
     36888     12296  TIP3      H2            -27.5303205720        3.3439175841        8.6822536648  W2        12710           0.0000000000
     36889     12297  TIP3      OH2           -36.4987605720        4.4146675841       14.4407736648  W2        12711           0.0000000000
     36890     12297  TIP3      H1            -36.5368205720        4.8148275841       15.3094836648  W2        12711           0.0000000000
     36891     12297  TIP3      H2            -36.9896505720        3.5979075841       14.5310636648  W2        12711           0.0000000000
     36892     12298  TIP3      OH2           -33.1330205720        1.7888975841        1.2393736648  W2        12712           0.0000000000
     36893     12298  TIP3      H1            -33.5639505720        1.3439075841        1.9691136648  W2        12712           0.0000000000
     36894     12298  TIP3      H2            -33.8511505720        2.1605275841        0.7271236648  W2        12712           0.0000000000
     36895     12299  TIP3      OH2           -39.8906805720        1.5308475841        8.2912436648  W2        12713           0.0000000000
     36896     12299  TIP3      H1            -39.2599105720        1.5020575841        9.0106336648  W2        12713           0.0000000000
     36897     12299  TIP3      H2            -39.4412505720        1.1057175841        7.5608336648  W2        12713           0.0000000000
     36898     12300  TIP3      OH2           -38.6164705720        2.2770475841        3.7152836648  W2        12714           0.0000000000
     36899     12300  TIP3      H1            -38.1423005720        2.8680375841        3.1303736648  W2        12714           0.0000000000
     36900     12300  TIP3      H2            -39.3338305720        2.8073375841        4.0622936648  W2        12714           0.0000000000
     36901     12301  TIP3      OH2           -28.4476605720        5.8155275841       13.7878636648  W2        12715           0.0000000000
     36902     12301  TIP3      H1            -28.1241805720        5.1844975841       13.1449136648  W2        12715           0.0000000000
     36903     12301  TIP3      H2            -28.8877305720        5.2807475841       14.4486036648  W2        12715           0.0000000000
     36904     12302  TIP3      OH2           -31.6703705720        1.7430775841        8.5719836648  W2        12716           0.0000000000
     36905     12302  TIP3      H1            -32.5812605720        1.7997575841        8.8605836648  W2        12716           0.0000000000
     36906     12302  TIP3      H2            -31.1650805720        1.6826275841        9.3827036648  W2        12716           0.0000000000
     36907     12303  TIP3      OH2           -36.8420305720        3.3717075841        7.3987436648  W2        12717           0.0000000000
     36908     12303  TIP3      H1            -37.7312305720        3.4712575841        7.0587036648  W2        12717           0.0000000000
     36909     12303  TIP3      H2            -36.5455405720        2.5300075841        7.0525336648  W2        12717           0.0000000000
     36910     12304  TIP3      OH2           -33.1888505720        3.3719675841        5.0552036648  W2        12718           0.0000000000
     36911     12304  TIP3      H1            -32.2573005720        3.5009675841        5.2335136648  W2        12718           0.0000000000
     36912     12304  TIP3      H2            -33.4038205720        4.0413975841        4.4056736648  W2        12718           0.0000000000
     36913     12305  TIP3      OH2           -27.2651805720        0.9777075841       11.8361636648  W2        12719           0.0000000000
     36914     12305  TIP3      H1            -27.9420205720        1.1090175841       12.5001336648  W2        12719           0.0000000000
     36915     12305  TIP3      H2            -27.7506905720        0.8226575841       11.0259336648  W2        12719           0.0000000000
     36916     12306  TIP3      OH2           -34.5148305720        4.5661875841        2.6218136648  W2        12720           0.0000000000
     36917     12306  TIP3      H1            -35.0573205720        4.1865675841        1.9305736648  W2        12720           0.0000000000
     36918     12306  TIP3      H2            -33.6813405720        4.7606575841        2.1932236648  W2        12720           0.0000000000
     36919     12307  TIP3      OH2           -36.3796905720        9.1233775841       17.7209736648  W2        12722           0.0000000000
     36920     12307  TIP3      H1            -35.6474505720        9.3779675841       18.2824236648  W2        12722           0.0000000000
     36921     12307  TIP3      H2            -37.1598205720        9.3279175841       18.2365136648  W2        12722           0.0000000000
     36922     12308  TIP3      OH2           -30.3504005720        4.5303775841       10.4589436648  W2        12723           0.0000000000
     36923     12308  TIP3      H1            -29.7860605720        3.9840375841        9.9119036648  W2        12723           0.0000000000
     36924     12308  TIP3      H2            -30.4980605720        4.0085675841       11.2477036648  W2        12723           0.0000000000
     36925     12309  TIP3      OH2           -35.3484305720        0.6669875841        6.8774236648  W2        12724           0.0000000000
     36926     12309  TIP3      H1            -35.6654805720       -0.2354824159        6.8419636648  W2        12724           0.0000000000
     36927     12309  TIP3      H2            -34.5670205720        0.6687275841        6.3245836648  W2        12724           0.0000000000
     36928     12310  TIP3      OH2           -31.7238105720        2.9189875841       12.8729836648  W2        12725           0.0000000000
     36929     12310  TIP3      H1            -32.5592805720        3.3729375841       12.9832236648  W2        12725           0.0000000000
     36930     12310  TIP3      H2            -31.1997505720        3.1948375841       13.6249736648  W2        12725           0.0000000000
     36931     12311  TIP3      OH2           -31.1795505720        9.1317575841        4.5576236648  W2        12726           0.0000000000
     36932     12311  TIP3      H1            -31.9244505720        8.6242875841        4.2354136648  W2        12726           0.0000000000
     36933     12311  TIP3      H2            -31.3138305720        9.1805575841        5.5041036648  W2        12726           0.0000000000
     36934     12312  TIP3      OH2           -24.0296605720        8.2645775841       13.3443836648  W2        12727           0.0000000000
     36935     12312  TIP3      H1            -23.3877805720        8.7212075841       12.8006036648  W2        12727           0.0000000000
     36936     12312  TIP3      H2            -24.8599705720        8.3778175841       12.8817936648  W2        12727           0.0000000000
     36937     12313  TIP3      OH2           -27.2818705720        1.9457475841        2.7568836648  W2        12728           0.0000000000
     36938     12313  TIP3      H1            -28.2204505720        2.0573075841        2.6057636648  W2        12728           0.0000000000
     36939     12313  TIP3      H2            -26.9846605720        2.8024375841        3.0634536648  W2        12728           0.0000000000
     36940     12314  TIP3      OH2           -29.6603405720        9.3160875841       15.7945336648  W2        12729           0.0000000000
     36941     12314  TIP3      H1            -30.0057305720        8.9343275841       16.6014936648  W2        12729           0.0000000000
     36942     12314  TIP3      H2            -29.8603305720       10.2494475841       15.8658236648  W2        12729           0.0000000000
     36943     12315  TIP3      OH2           -26.5635205720        3.8130175841        4.4176236648  W2        12730           0.0000000000
     36944     12315  TIP3      H1            -25.6716205720        3.6755175841        4.7367436648  W2        12730           0.0000000000
     36945     12315  TIP3      H2            -26.5071605720        4.6036275841        3.8809736648  W2        12730           0.0000000000
     36946     12316  TIP3      OH2           -36.0547205720        8.4267575841       10.3274136648  W2        12731           0.0000000000
     36947     12316  TIP3      H1            -35.3100005720        8.4243275841        9.7260636648  W2        12731           0.0000000000
     36948     12316  TIP3      H2            -35.9770605720        7.6031375841       10.8089236648  W2        12731           0.0000000000
     36949     12317  TIP3      OH2           -29.0541405720       10.5901875841        3.5830836648  W2        12732           0.0000000000
     36950     12317  TIP3      H1            -29.3493005720       11.4169775841        3.9645636648  W2        12732           0.0000000000
     36951     12317  TIP3      H2            -29.7571405720        9.9708775841        3.7792236648  W2        12732           0.0000000000
     36952     12318  TIP3      OH2           -39.0467505720        6.8874475841       15.6422636648  W2        12733           0.0000000000
     36953     12318  TIP3      H1            -38.8238905720        6.4694075841       16.4740136648  W2        12733           0.0000000000
     36954     12318  TIP3      H2            -39.6487405720        6.2749475841       15.2195436648  W2        12733           0.0000000000
     36955     12319  TIP3      OH2           -27.4099805720       11.7776375841       15.7450336648  W2        12735           0.0000000000
     36956     12319  TIP3      H1            -28.3105505720       11.9608975841       15.4774236648  W2        12735           0.0000000000
     36957     12319  TIP3      H2            -27.3758705720       12.0365675841       16.6659136648  W2        12735           0.0000000000
     36958     12320  TIP3      OH2           -21.6786505720        4.0224275841        4.1122936648  W2        12736           0.0000000000
     36959     12320  TIP3      H1            -22.2330205720        3.6262275841        3.4400436648  W2        12736           0.0000000000
     36960     12320  TIP3      H2            -21.5782905720        4.9329475841        3.8346236648  W2        12736           0.0000000000
     36961     12321  TIP3      OH2           -21.7154505720        9.8225975841       16.9494436648  W2        12737           0.0000000000
     36962     12321  TIP3      H1            -22.5666005720       10.0609775841       16.5820836648  W2        12737           0.0000000000
     36963     12321  TIP3      H2            -21.1251105720        9.8059175841       16.1961536648  W2        12737           0.0000000000
     36964     12322  TIP3      OH2           -23.3834805720       12.8084675841        4.5775036648  W2        12738           0.0000000000
     36965     12322  TIP3      H1            -23.7563705720       11.9828475841        4.8865636648  W2        12738           0.0000000000
     36966     12322  TIP3      H2            -23.1061305720       12.6254075841        3.6798436648  W2        12738           0.0000000000
     36967     12323  TIP3      OH2           -26.2230905720        7.6164175841       11.5986936648  W2        12739           0.0000000000
     36968     12323  TIP3      H1            -27.1514005720        7.3846075841       11.5716236648  W2        12739           0.0000000000
     36969     12323  TIP3      H2            -25.7719805720        6.8393975841       11.2685736648  W2        12739           0.0000000000
     36970     12324  TIP3      OH2           -33.6797805720       11.9445775841        7.7315636648  W2        12740           0.0000000000
     36971     12324  TIP3      H1            -33.1525605720       12.7180175841        7.5314436648  W2        12740           0.0000000000
     36972     12324  TIP3      H2            -34.5599305720       12.1694975841        7.4299636648  W2        12740           0.0000000000
     36973     12325  TIP3      OH2           -37.9250105720        6.8069875841        2.3188036648  W2        12741           0.0000000000
     36974     12325  TIP3      H1            -37.3090205720        7.4337075841        2.6982836648  W2        12741           0.0000000000
     36975     12325  TIP3      H2            -38.7867505720        7.1229675841        2.5904536648  W2        12741           0.0000000000
     36976     12326  TIP3      OH2           -32.2525505720        9.6075675841        7.3079936648  W2        12742           0.0000000000
     36977     12326  TIP3      H1            -32.4935505720       10.5330075841        7.3495236648  W2        12742           0.0000000000
     36978     12326  TIP3      H2            -32.9931905720        9.1486975841        7.7043836648  W2        12742           0.0000000000
     36979     12327  TIP3      OH2           -31.7378905720       13.7569275841       13.6231036648  W2        12743           0.0000000000
     36980     12327  TIP3      H1            -31.3754205720       14.6114875841       13.3895436648  W2        12743           0.0000000000
     36981     12327  TIP3      H2            -31.2063705720       13.4650875841       14.3637336648  W2        12743           0.0000000000
     36982     12328  TIP3      OH2           -33.5694705720       14.6293275841        6.8532136648  W2        12744           0.0000000000
     36983     12328  TIP3      H1            -34.5194205720       14.7350675841        6.9045436648  W2        12744           0.0000000000
     36984     12328  TIP3      H2            -33.2176605720       15.4500675841        7.1979636648  W2        12744           0.0000000000
     36985     12329  TIP3      OH2           -28.1938105720        9.8559975841       13.3236636648  W2        12745           0.0000000000
     36986     12329  TIP3      H1            -28.6196805720        9.6281675841       14.1500636648  W2        12745           0.0000000000
     36987     12329  TIP3      H2            -27.6132305720        9.1171775841       13.1411936648  W2        12745           0.0000000000
     36988     12330  TIP3      OH2           -25.9909205720       10.7850475841        2.3975636648  W2        12746           0.0000000000
     36989     12330  TIP3      H1            -25.6376105720       10.4050275841        3.2019136648  W2        12746           0.0000000000
     36990     12330  TIP3      H2            -26.9395705720       10.6915275841        2.4844936648  W2        12746           0.0000000000
     36991     12331  TIP3      OH2           -25.5353905720       14.4079475841       15.7931436648  W2        12747           0.0000000000
     36992     12331  TIP3      H1            -26.1370705720       13.8522375841       15.2977736648  W2        12747           0.0000000000
     36993     12331  TIP3      H2            -25.2540205720       15.0749275841       15.1668836648  W2        12747           0.0000000000
     36994     12332  TIP3      OH2           -21.4874805720       15.2642975841        2.5985836648  W2        12748           0.0000000000
     36995     12332  TIP3      H1            -20.7436905720       15.8503475841        2.4587436648  W2        12748           0.0000000000
     36996     12332  TIP3      H2            -22.1816705720       15.8328775841        2.9318236648  W2        12748           0.0000000000
     36997     12333  TIP3      OH2           -37.4128005720        1.6407175841       15.2004036648  W2        12749           0.0000000000
     36998     12333  TIP3      H1            -38.3055705720        1.9792575841       15.1328036648  W2        12749           0.0000000000
     36999     12333  TIP3      H2            -37.5115205720        0.7853275841       15.6184836648  W2        12749           0.0000000000
     37000     12334  TIP3      OH2           -25.1249905720        9.4572475841        4.6243536648  W2        12750           0.0000000000
     37001     12334  TIP3      H1            -25.4022305720        8.7291775841        5.1804636648  W2        12750           0.0000000000
     37002     12334  TIP3      H2            -24.1976905720        9.5764475841        4.8296136648  W2        12750           0.0000000000
     37003     12335  TIP3      OH2           -37.7616005720       13.4451575841       13.6353436648  W2        12751           0.0000000000
     37004     12335  TIP3      H1            -37.5445705720       12.5133975841       13.6043136648  W2        12751           0.0000000000
     37005     12335  TIP3      H2            -37.5152505720       13.7196575841       14.5186236648  W2        12751           0.0000000000
     37006     12336  TIP3      OH2           -31.9001405720       11.8966575841        0.8445636648  W2        12752           0.0000000000
     37007     12336  TIP3      H1            -31.6611605720       11.1484675841        0.2974536648  W2        12752           0.0000000000
     37008     12336  TIP3      H2            -32.1690105720       11.5088275841        1.6773436648  W2        12752           0.0000000000
     37009     12337  TIP3      OH2           -32.9630805720       11.4670375841        3.3008236648  W2        12753           0.0000000000
     37010     12337  TIP3      H1            -32.8162805720       10.9470175841        4.0909136648  W2        12753           0.0000000000
     37011     12337  TIP3      H2            -32.9659105720       12.3737975841        3.6074136648  W2        12753           0.0000000000
     37012     12338  TIP3      OH2           -36.5099705720        8.7193675841        3.8113636648  W2        12754           0.0000000000
     37013     12338  TIP3      H1            -37.1960405720        9.0716175841        4.3783336648  W2        12754           0.0000000000
     37014     12338  TIP3      H2            -35.9871805720        9.4823275841        3.5647936648  W2        12754           0.0000000000
     37015     12339  TIP3      OH2           -28.6784605720        1.3817475841       14.0902636648  W2        12755           0.0000000000
     37016     12339  TIP3      H1            -27.9796705720        1.4556175841       14.7402336648  W2        12755           0.0000000000
     37017     12339  TIP3      H2            -29.0593205720        0.5172475841       14.2445536648  W2        12755           0.0000000000
     37018     12340  TIP3      OH2           -27.8939705720        1.0339175841        5.1874936648  W2        12756           0.0000000000
     37019     12340  TIP3      H1            -27.6741405720        1.5054575841        4.3840336648  W2        12756           0.0000000000
     37020     12340  TIP3      H2            -27.3355705720        1.4281775841        5.8575536648  W2        12756           0.0000000000
     37021     12341  TIP3      OH2           -30.2253605720       13.1643975841        4.0502436648  W2        12757           0.0000000000
     37022     12341  TIP3      H1            -31.0417505720       13.6613675841        4.1026736648  W2        12757           0.0000000000
     37023     12341  TIP3      H2            -29.6957305720       13.6397475841        3.4101236648  W2        12757           0.0000000000
     37024     12342  TIP3      OH2           -30.6939805720        2.7617975841        6.0223336648  W2        12758           0.0000000000
     37025     12342  TIP3      H1            -29.8817205720        3.2661175841        6.0685036648  W2        12758           0.0000000000
     37026     12342  TIP3      H2            -30.9386805720        2.6167675841        6.9362936648  W2        12758           0.0000000000
     37027     12343  TIP3      OH2           -30.1583405720        3.7480675841       15.2069936648  W2        12759           0.0000000000
     37028     12343  TIP3      H1            -30.0393105720        4.3216075841       15.9640336648  W2        12759           0.0000000000
     37029     12343  TIP3      H2            -29.5028805720        3.0600075841       15.3217736648  W2        12759           0.0000000000
     37030     12344  TIP3      OH2           -29.8103105720       -0.1569024159        6.9604436648  W2        12760           0.0000000000
     37031     12344  TIP3      H1            -30.1569605720        0.4601575841        7.6048736648  W2        12760           0.0000000000
     37032     12344  TIP3      H2            -29.1516205720        0.3436675841        6.4789936648  W2        12760           0.0000000000
     37033     12345  TIP3      OH2           -32.8870505720       14.2081175841        4.0319336648  W2        12761           0.0000000000
     37034     12345  TIP3      H1            -32.7261805720       15.0078675841        3.5311936648  W2        12761           0.0000000000
     37035     12345  TIP3      H2            -33.0842705720       14.5147175841        4.9169936648  W2        12761           0.0000000000
     37036     12346  TIP3      OH2           -34.1526105720        0.9060375841        3.6476936648  W2        12762           0.0000000000
     37037     12346  TIP3      H1            -34.2361305720        1.7943475841        3.9943336648  W2        12762           0.0000000000
     37038     12346  TIP3      H2            -33.2625805720        0.6407075841        3.8793736648  W2        12762           0.0000000000
     37039     12347  TIP3      OH2           -23.9537605720        1.6550975841       16.0419636648  W2        12763           0.0000000000
     37040     12347  TIP3      H1            -24.8701805720        1.9172675841       15.9543336648  W2        12763           0.0000000000
     37041     12347  TIP3      H2            -23.6182605720        1.6519975841       15.1454936648  W2        12763           0.0000000000
     37042     12348  TIP3      OH2           -25.3516605720        5.4051975841       10.1376936648  W2        12764           0.0000000000
     37043     12348  TIP3      H1            -26.1492205720        4.9902175841        9.8091936648  W2        12764           0.0000000000
     37044     12348  TIP3      H2            -24.9065505720        4.7145675841       10.6287436648  W2        12764           0.0000000000
     37045     12349  TIP3      OH2           -35.8940805720       11.3332575841        2.7081436648  W2        12765           0.0000000000
     37046     12349  TIP3      H1            -35.3019305720       12.0327375841        2.9843836648  W2        12765           0.0000000000
     37047     12349  TIP3      H2            -35.4347805720       10.9002075841        1.9886036648  W2        12765           0.0000000000
     37048     12350  TIP3      OH2           -37.5781605720        3.9975575841        1.8240836648  W2        12766           0.0000000000
     37049     12350  TIP3      H1            -37.6229005720        4.9368675841        2.0027836648  W2        12766           0.0000000000
     37050     12350  TIP3      H2            -38.4658405720        3.7620475841        1.5542936648  W2        12766           0.0000000000
     37051     12351  TIP3      OH2           -24.2652005720       14.6614475841       11.7600436648  W2        12767           0.0000000000
     37052     12351  TIP3      H1            -24.4207705720       15.3398875841       11.1029736648  W2        12767           0.0000000000
     37053     12351  TIP3      H2            -23.3325605720       14.7333775841       11.9631036648  W2        12767           0.0000000000
     37054     12352  TIP3      OH2           -36.7699605720       -1.2207824159       10.4971836648  W2        12768           0.0000000000
     37055     12352  TIP3      H1            -36.9989805720       -1.1615324159        9.5696836648  W2        12768           0.0000000000
     37056     12352  TIP3      H2            -37.2126205720       -2.0122324159       10.8035936648  W2        12768           0.0000000000
     37057     12353  TIP3      OH2           -37.8396305720       12.7199275841        6.6577636648  W2        12769           0.0000000000
     37058     12353  TIP3      H1            -38.6717705720       13.1921975841        6.6849036648  W2        12769           0.0000000000
     37059     12353  TIP3      H2            -37.2938005720       13.2296875841        6.0590736648  W2        12769           0.0000000000
     37060     12354  TIP3      OH2           -29.8619605720       13.7597975841        0.9831636648  W2        12772           0.0000000000
     37061     12354  TIP3      H1            -30.5058605720       13.1286575841        1.3045336648  W2        12772           0.0000000000
     37062     12354  TIP3      H2            -29.1001305720       13.2285975841        0.7515136648  W2        12772           0.0000000000
     37063     12355  TIP3      OH2           -25.2576705720       13.5767875841        1.2169636648  W2        12774           0.0000000000
     37064     12355  TIP3      H1            -24.9746305720       12.7823075841        1.6696536648  W2        12774           0.0000000000
     37065     12355  TIP3      H2            -24.5178805720       13.8098875841        0.6560736648  W2        12774           0.0000000000
     37066     12356  TIP3      OH2           -34.3029405720        9.4862775841        1.0744536648  W2        12776           0.0000000000
     37067     12356  TIP3      H1            -34.2385305720        8.6922375841        1.6050936648  W2        12776           0.0000000000
     37068     12356  TIP3      H2            -33.6500205720        9.3675575841        0.3846536648  W2        12776           0.0000000000
     37069     12357  TIP3      OH2           -28.9506005720       10.5334475841        0.8102536648  W2        12778           0.0000000000
     37070     12357  TIP3      H1            -29.2191905720       10.7136575841        1.7111436648  W2        12778           0.0000000000
     37071     12357  TIP3      H2            -29.1570405720        9.6080675841        0.6788336648  W2        12778           0.0000000000
     37072     12358  TIP3      OH2           -26.2541805720        9.0282475841       15.7578636648  W2        12779           0.0000000000
     37073     12358  TIP3      H1            -25.5087005720        9.6166175841       15.6382636648  W2        12779           0.0000000000
     37074     12358  TIP3      H2            -27.0115005720        9.6102175841       15.8211736648  W2        12779           0.0000000000
     37075     12359  TIP3      OH2           -33.1535605720        7.4588975841        3.3802536648  W2        12781           0.0000000000
     37076     12359  TIP3      H1            -33.6133605720        6.9747275841        4.0661036648  W2        12781           0.0000000000
     37077     12359  TIP3      H2            -32.8986905720        6.7904375841        2.7443036648  W2        12781           0.0000000000
     37078     12360  TIP3      OH2           -33.8646305720        5.3516075841       15.7362136648  W2        12782           0.0000000000
     37079     12360  TIP3      H1            -34.4830205720        6.0262675841       16.0166836648  W2        12782           0.0000000000
     37080     12360  TIP3      H2            -33.5205105720        5.6729975841       14.9028336648  W2        12782           0.0000000000
     37081     12361  TIP3      OH2           -32.0825205720        5.7020775841        1.6425736648  W2        12783           0.0000000000
     37082     12361  TIP3      H1            -32.2630205720        5.5471975841        0.7154036648  W2        12783           0.0000000000
     37083     12361  TIP3      H2            -31.1324705720        5.8099475841        1.6873636648  W2        12783           0.0000000000
     37084     12362  TIP3      OH2           -22.6926905720        8.0564975841        1.0883836648  W2        12785           0.0000000000
     37085     12362  TIP3      H1            -22.9662105720        7.6320475841        0.2752136648  W2        12785           0.0000000000
     37086     12362  TIP3      H2            -22.6532805720        8.9879475841        0.8714236648  W2        12785           0.0000000000
     37087     12363  TIP3      OH2           -33.5252605720        2.7066875841       16.8185236648  W2        12786           0.0000000000
     37088     12363  TIP3      H1            -33.3751705720        1.9778175841       16.2164936648  W2        12786           0.0000000000
     37089     12363  TIP3      H2            -33.5230205720        3.4838575841       16.2597436648  W2        12786           0.0000000000
     37090     12364  TIP3      OH2           -33.1126905720        1.0762675841       14.3112636648  W2        12787           0.0000000000
     37091     12364  TIP3      H1            -32.5769405720        1.5279375841       13.6591936648  W2        12787           0.0000000000
     37092     12364  TIP3      H2            -33.9647305720        0.9682475841       13.8886736648  W2        12787           0.0000000000
     37093     12365  TIP3      OH2           -31.5308505720        6.5158875841       14.5507836648  W2        12788           0.0000000000
     37094     12365  TIP3      H1            -30.7803705720        6.3596375841       13.9775636648  W2        12788           0.0000000000
     37095     12365  TIP3      H2            -31.8700205720        7.3675475841       14.2753336648  W2        12788           0.0000000000
     37096     12366  TIP3      OH2           -25.7985105720        7.1195875841       17.6565836648  W2        12790           0.0000000000
     37097     12366  TIP3      H1            -26.0800105720        7.8290475841       17.0789636648  W2        12790           0.0000000000
     37098     12366  TIP3      H2            -24.8560805720        7.0468875841       17.5057036648  W2        12790           0.0000000000
     37099     12367  TIP3      OH2           -32.3071405720       -1.4671624159       14.7426236648  W2        12792           0.0000000000
     37100     12367  TIP3      H1            -32.4051805720       -0.5208424159       14.6372436648  W2        12792           0.0000000000
     37101     12367  TIP3      H2            -33.0495205720       -1.8397824159       14.2669736648  W2        12792           0.0000000000
     37102     12368  TIP3      OH2           -28.3274305720        1.9817275841       17.3818136648  W2        12794           0.0000000000
     37103     12368  TIP3      H1            -29.2748905720        2.0136975841       17.5141436648  W2        12794           0.0000000000
     37104     12368  TIP3      H2            -28.0147605720        1.3564375841       18.0356336648  W2        12794           0.0000000000
     37105     12369  TIP3      OH2           -32.0853305720       -2.1734224159       17.4139036648  W2        12797           0.0000000000
     37106     12369  TIP3      H1            -31.3734905720       -2.8132024159       17.3998136648  W2        12797           0.0000000000
     37107     12369  TIP3      H2            -32.1862905720       -1.9065924159       16.5002136648  W2        12797           0.0000000000
     37108     12370  TIP3      OH2           -32.1853505720       16.3924475841        2.6439336648  W2        12799           0.0000000000
     37109     12370  TIP3      H1            -31.2522805720       16.5503175841        2.7877736648  W2        12799           0.0000000000
     37110     12370  TIP3      H2            -32.4494705720       17.0677475841        2.0190836648  W2        12799           0.0000000000
     37111     12371  TIP3      OH2           -38.6168605720       11.0288275841        2.1267436648  W2        12800           0.0000000000
     37112     12371  TIP3      H1            -37.7029405720       11.1077175841        2.4001336648  W2        12800           0.0000000000
     37113     12371  TIP3      H2            -38.6095505720       10.3417875841        1.4603036648  W2        12800           0.0000000000
     37114     12372  TIP3      OH2           -39.9678005720       16.4216775841        7.2041336648  W2        12801           0.0000000000
     37115     12372  TIP3      H1            -40.6150905720       15.9598475841        6.6712536648  W2        12801           0.0000000000
     37116     12372  TIP3      H2            -39.6133405720       15.7500075841        7.7867536648  W2        12801           0.0000000000
     37117     12373  TIP3      OH2           -39.0978805720       14.5023775841        9.0087536648  W2        12802           0.0000000000
     37118     12373  TIP3      H1            -39.4322005720       13.6221075841        9.1807736648  W2        12802           0.0000000000
     37119     12373  TIP3      H2            -38.8756405720       14.8478775841        9.8733136648  W2        12802           0.0000000000
     37120     12374  TIP3      OH2           -21.5494005720       15.3120175841       11.9892336648  W2        12803           0.0000000000
     37121     12374  TIP3      H1            -21.5707305720       15.4968575841       12.9281736648  W2        12803           0.0000000000
     37122     12374  TIP3      H2            -20.8587805720       15.8804175841       11.6483736648  W2        12803           0.0000000000
     37123     12375  TIP3      OH2           -21.9861105720       14.8791275841       14.9111436648  W2        12804           0.0000000000
     37124     12375  TIP3      H1            -22.4732405720       14.1435375841       14.5398836648  W2        12804           0.0000000000
     37125     12375  TIP3      H2            -21.4368405720       14.4855175841       15.5890836648  W2        12804           0.0000000000
     37126     12376  TIP3      OH2           -22.2344105720        8.9253075841        5.0634236648  W2        12806           0.0000000000
     37127     12376  TIP3      H1            -21.3842705720        9.3463975841        5.1905836648  W2        12806           0.0000000000
     37128     12376  TIP3      H2            -22.2289005720        8.1853175841        5.6705636648  W2        12806           0.0000000000
     37129     12377  TIP3      OH2           -21.8398505720        6.9790475841        6.8869936648  W2        12807           0.0000000000
     37130     12377  TIP3      H1            -22.5663905720        6.4993075841        7.2847536648  W2        12807           0.0000000000
     37131     12377  TIP3      H2            -21.2585205720        7.1845175841        7.6191536648  W2        12807           0.0000000000
     37132     12378  TIP3      OH2           -22.0807305720        9.7637975841       11.8347536648  W2        12808           0.0000000000
     37133     12378  TIP3      H1            -21.2473105720        9.3857975841       11.5541136648  W2        12808           0.0000000000
     37134     12378  TIP3      H2            -21.9687005720       10.7069175841       11.7156636648  W2        12808           0.0000000000
     37135     12379  TIP3      OH2           -23.5945005720       12.6415475841       14.1415936648  W2        12809           0.0000000000
     37136     12379  TIP3      H1            -24.2419705720       12.9666975841       14.7671136648  W2        12809           0.0000000000
     37137     12379  TIP3      H2            -24.1121005720       12.2013175841       13.4674236648  W2        12809           0.0000000000
     37138     12380  TIP3      OH2           -21.5715405720        6.8798975841        3.2781236648  W2        12810           0.0000000000
     37139     12380  TIP3      H1            -22.0934305720        7.2363075841        2.5592136648  W2        12810           0.0000000000
     37140     12380  TIP3      H2            -21.6046205720        7.5546775841        3.9562136648  W2        12810           0.0000000000
     37141     12381  TIP3      OH2           -23.2226405720        4.1194575841        1.8288336648  W2        12811           0.0000000000
     37142     12381  TIP3      H1            -23.1262005720        4.7861575841        1.1488036648  W2        12811           0.0000000000
     37143     12381  TIP3      H2            -23.3626805720        3.3040875841        1.3473836648  W2        12811           0.0000000000
     37144     12382  TIP3      OH2           -24.0531705720        5.4996975841        7.4498636648  W2        12812           0.0000000000
     37145     12382  TIP3      H1            -24.2032905720        4.5545575841        7.4296436648  W2        12812           0.0000000000
     37146     12382  TIP3      H2            -24.4067205720        5.7808375841        8.2937736648  W2        12812           0.0000000000
     37147     12383  TIP3      OH2           -39.0179305720        7.5779175841       11.4602436648  W2        12813           0.0000000000
     37148     12383  TIP3      H1            -38.8336405720        7.4960875841       10.5245336648  W2        12813           0.0000000000
     37149     12383  TIP3      H2            -38.1686405720        7.4536175841       11.8838836648  W2        12813           0.0000000000
     37150     12384  TIP3      OH2           -23.1968805720        7.4700275841       17.0886936648  W2        12814           0.0000000000
     37151     12384  TIP3      H1            -22.6141505720        6.7352575841       17.2804136648  W2        12814           0.0000000000
     37152     12384  TIP3      H2            -22.6329505720        8.2420575841       17.1352736648  W2        12814           0.0000000000
     37153     12385  TIP3      OH2           -21.7001705720        5.3726075841       17.7732336648  W2        12815           0.0000000000
     37154     12385  TIP3      H1            -22.5635005720        4.9938175841       17.6077036648  W2        12815           0.0000000000
     37155     12385  TIP3      H2            -21.0958005720        4.6340875841       17.6988136648  W2        12815           0.0000000000
     37156     12386  TIP3      OH2           -23.9752605720        1.5274375841        0.9463836648  W2        12816           0.0000000000
     37157     12386  TIP3      H1            -23.3646805720        1.1561175841        1.5832036648  W2        12816           0.0000000000
     37158     12386  TIP3      H2            -24.8121105720        1.1061275841        1.1423836648  W2        12816           0.0000000000
     37159     12387  TIP3      OH2           -24.3426905720        3.0822775841        5.9123736648  W2        12817           0.0000000000
     37160     12387  TIP3      H1            -24.0629805720        2.1753175841        6.0365436648  W2        12817           0.0000000000
     37161     12387  TIP3      H2            -23.5835205720        3.5164275841        5.5232936648  W2        12817           0.0000000000
     37162     12388  TIP3      OH2           -23.7308605720        3.6640175841       11.3482636648  W2        12818           0.0000000000
     37163     12388  TIP3      H1            -22.7980605720        3.8760075841       11.3138636648  W2        12818           0.0000000000
     37164     12388  TIP3      H2            -23.9661105720        3.7652275841       12.2705636648  W2        12818           0.0000000000
     37165     12389  TIP3      OH2           -23.7016705720        4.4005475841       14.1242036648  W2        12819           0.0000000000
     37166     12389  TIP3      H1            -24.5445405720        4.6685875841       14.4901836648  W2        12819           0.0000000000
     37167     12389  TIP3      H2            -23.2592405720        5.2227375841       13.9133136648  W2        12819           0.0000000000
     37168     12390  TIP3      OH2           -39.4204505720        2.8484175841       17.6011236648  W2        12820           0.0000000000
     37169     12390  TIP3      H1            -38.5009605720        2.7262475841       17.8374336648  W2        12820           0.0000000000
     37170     12390  TIP3      H2            -39.8700005720        2.0983875841       17.9904736648  W2        12820           0.0000000000
     37171     12391  TIP3      OH2           -23.7292105720        0.3452075841        5.9605736648  W2        12822           0.0000000000
     37172     12391  TIP3      H1            -23.5467105720       -0.1036424159        6.7860736648  W2        12822           0.0000000000
     37173     12391  TIP3      H2            -24.3289205720       -0.2393524159        5.4970336648  W2        12822           0.0000000000
     37174     12392  TIP3      OH2           -38.1992005720        1.1605775841       10.4924136648  W2        12823           0.0000000000
     37175     12392  TIP3      H1            -37.7540405720        0.3688275841       10.7943836648  W2        12823           0.0000000000
     37176     12392  TIP3      H2            -37.7329005720        1.8770975841       10.9229736648  W2        12823           0.0000000000
     37177     12393  TIP3      OH2           -39.8951705720        4.1598775841       11.5614336648  W2        12824           0.0000000000
     37178     12393  TIP3      H1            -39.4031905720        3.9389275841       10.7706336648  W2        12824           0.0000000000
     37179     12393  TIP3      H2            -39.5330805720        5.0002175841       11.8423836648  W2        12824           0.0000000000
     37180     12394  TIP3      OH2           -21.8625905720        0.4130175841        2.4886036648  W2        12826           0.0000000000
     37181     12394  TIP3      H1            -21.4503305720       -0.3084124159        2.0134036648  W2        12826           0.0000000000
     37182     12394  TIP3      H2            -21.1809405720        1.0824775841        2.5470336648  W2        12826           0.0000000000
     37183     12395  TIP3      OH2           -39.5815205720        0.4177875841        5.6156736648  W2        12827           0.0000000000
     37184     12395  TIP3      H1            -40.5066805720        0.6264475841        5.4862236648  W2        12827           0.0000000000
     37185     12395  TIP3      H2            -39.1275305720        0.9018675841        4.9259036648  W2        12827           0.0000000000
     37186     12396  TIP3      OH2           -24.8108005720       15.4019575841        7.5614136648  W2        12828           0.0000000000
     37187     12396  TIP3      H1            -24.1585105720       15.0541675841        6.9533236648  W2        12828           0.0000000000
     37188     12396  TIP3      H2            -24.3004205720       15.8902775841        8.2073836648  W2        12828           0.0000000000
     37189     12397  TIP3      OH2           -39.6179805720       -0.8443124159       13.9599236648  W2        12829           0.0000000000
     37190     12397  TIP3      H1            -40.2829305720       -1.0902824159       14.6030136648  W2        12829           0.0000000000
     37191     12397  TIP3      H2            -40.0608505720       -0.2222724159       13.3827236648  W2        12829           0.0000000000
     37192     12398  TIP3      OH2           -34.4717605720       13.3052175841       14.3629036648  W2        12831           0.0000000000
     37193     12398  TIP3      H1            -34.8966505720       14.1150675841       14.0803636648  W2        12831           0.0000000000
     37194     12398  TIP3      H2            -33.5674805720       13.3906275841       14.0608836648  W2        12831           0.0000000000
     37195     12399  TIP3      OH2           -30.1606205720       14.7042175841       17.3222736648  W2        12832           0.0000000000
     37196     12399  TIP3      H1            -29.9758705720       14.3708275841       18.2003036648  W2        12832           0.0000000000
     37197     12399  TIP3      H2            -29.3141705720       15.0140775841       17.0001936648  W2        12832           0.0000000000
     37198     12400  TIP3      OH2           -27.8155805720       15.9901075841       16.5664136648  W2        12833           0.0000000000
     37199     12400  TIP3      H1            -27.1386905720       15.3573375841       16.3263336648  W2        12833           0.0000000000
     37200     12400  TIP3      H2            -27.4937005720       16.3911575841       17.3737436648  W2        12833           0.0000000000
     37201     12401  TIP3      OH2           -22.8982005720       -1.4203424159       15.6459136648  W2        12834           0.0000000000
     37202     12401  TIP3      H1            -23.7108505720       -1.0953124159       15.2583836648  W2        12834           0.0000000000
     37203     12401  TIP3      H2            -22.6653505720       -2.1804924159       15.1128236648  W2        12834           0.0000000000
     37204     12402  TIP3      OH2           -37.0700905720       16.5616075841       14.4104336648  W2        12835           0.0000000000
     37205     12402  TIP3      H1            -37.7904505720       17.0017075841       13.9592036648  W2        12835           0.0000000000
     37206     12402  TIP3      H2            -37.4356905720       16.3110775841       15.2588336648  W2        12835           0.0000000000
     37207     12403  TIP3      OH2           -34.6028305720       16.1619975841       13.4401536648  W2        12836           0.0000000000
     37208     12403  TIP3      H1            -35.4676105720       16.2338475841       13.8441636648  W2        12836           0.0000000000
     37209     12403  TIP3      H2            -34.6579305720       16.7087275841       12.6564036648  W2        12836           0.0000000000
     37210     12404  TIP3      OH2           -29.8922705720       16.0498875841       12.6157536648  W2        12837           0.0000000000
     37211     12404  TIP3      H1            -30.3488705720       16.5788575841       11.9615936648  W2        12837           0.0000000000
     37212     12404  TIP3      H2            -29.7294705720       16.6530275841       13.3409836648  W2        12837           0.0000000000
     37213     12405  TIP3      OH2           -27.5646405720       14.9278475841       13.5607836648  W2        12838           0.0000000000
     37214     12405  TIP3      H1            -28.4692705720       15.0928675841       13.2949936648  W2        12838           0.0000000000
     37215     12405  TIP3      H2            -27.1357805720       15.7810675841       13.4951236648  W2        12838           0.0000000000
     37216     12406  TIP3      OH2           -24.9604505720       16.4977575841       13.8555636648  W2        12839           0.0000000000
     37217     12406  TIP3      H1            -25.1422505720       17.4136475841       13.6450536648  W2        12839           0.0000000000
     37218     12406  TIP3      H2            -24.7836705720       16.0874675841       13.0090236648  W2        12839           0.0000000000
     37219     12407  TIP3      OH2           -37.6552805720       15.1848575841       11.3206136648  W2        12840           0.0000000000
     37220     12407  TIP3      H1            -37.6736805720       14.7593675841       12.1778436648  W2        12840           0.0000000000
     37221     12407  TIP3      H2            -36.8504905720       14.8663575841       10.9118336648  W2        12840           0.0000000000
     37222     12408  TIP3      OH2           -35.5139705720       13.8947275841        9.9756036648  W2        12841           0.0000000000
     37223     12408  TIP3      H1            -35.7329005720       12.9784675841       10.1452036648  W2        12841           0.0000000000
     37224     12408  TIP3      H2            -34.6897505720       14.0347675841       10.4417436648  W2        12841           0.0000000000
     37225     12409  TIP3      OH2           -32.9767205720       14.3646575841       10.8244036648  W2        12842           0.0000000000
     37226     12409  TIP3      H1            -32.7641505720       13.4765575841       10.5374936648  W2        12842           0.0000000000
     37227     12409  TIP3      H2            -32.9122105720       14.3304275841       11.7788036648  W2        12842           0.0000000000
     37228     12410  TIP3      OH2           -29.4683505720        0.0287175841        9.9687336648  W2        12843           0.0000000000
     37229     12410  TIP3      H1            -30.1426705720       -0.6007224159       10.2243136648  W2        12843           0.0000000000
     37230     12410  TIP3      H2            -28.9044305720       -0.4553924159        9.3655236648  W2        12843           0.0000000000
     37231     12411  TIP3      OH2           -24.3256305720       -1.8638824159       10.0814436648  W2        12844           0.0000000000
     37232     12411  TIP3      H1            -23.7218705720       -1.3163424159        9.5795436648  W2        12844           0.0000000000
     37233     12411  TIP3      H2            -25.1954305720       -1.5448424159        9.8408536648  W2        12844           0.0000000000
     37234     12412  TIP3      OH2           -22.5985905720       -0.7250124159        8.4145336648  W2        12845           0.0000000000
     37235     12412  TIP3      H1            -21.9868405720       -1.2394424159        7.8878936648  W2        12845           0.0000000000
     37236     12412  TIP3      H2            -22.2162505720        0.1521975841        8.4379736648  W2        12845           0.0000000000
     37237     12413  TIP3      OH2           -37.1416005720       -1.3372524159        7.7907236648  W2        12846           0.0000000000
     37238     12413  TIP3      H1            -37.9186205720       -1.5717624159        7.2833136648  W2        12846           0.0000000000
     37239     12413  TIP3      H2            -36.6112405720       -2.1340424159        7.7995236648  W2        12846           0.0000000000
     37240     12414  TIP3      OH2           -38.3052605720       -1.5394424159        3.5943336648  W2        12847           0.0000000000
     37241     12414  TIP3      H1            -37.8661905720       -0.9283924159        3.0026836648  W2        12847           0.0000000000
     37242     12414  TIP3      H2            -38.9390205720       -1.0010324159        4.0683336648  W2        12847           0.0000000000
     37243     12415  TIP3      OH2           -32.5623405720       -1.4105424159        7.6040336648  W2        12848           0.0000000000
     37244     12415  TIP3      H1            -31.6880005720       -1.0221124159        7.5744636648  W2        12848           0.0000000000
     37245     12415  TIP3      H2            -32.6982605720       -1.6257624159        8.5267536648  W2        12848           0.0000000000
     37246     12416  TIP3      OH2           -27.0055005720       -1.3805624159        9.2532036648  W2        12849           0.0000000000
     37247     12416  TIP3      H1            -26.9293405720       -1.2854024159        8.3038036648  W2        12849           0.0000000000
     37248     12416  TIP3      H2            -27.2805805720       -2.2882724159        9.3821136648  W2        12849           0.0000000000
     37249     12417  TIP3      OH2           -25.6522405720       -1.3547824159        4.9457036648  W2        12850           0.0000000000
     37250     12417  TIP3      H1            -26.3551305720       -0.7398624159        4.7358436648  W2        12850           0.0000000000
     37251     12417  TIP3      H2            -26.0971005720       -2.1921124159        5.0767936648  W2        12850           0.0000000000
     37252     12418  TIP3      OH2           -38.4043105720       14.4087775841        4.4918436648  W2        12851           0.0000000000
     37253     12418  TIP3      H1            -39.0893205720       14.3706675841        3.8243536648  W2        12851           0.0000000000
     37254     12418  TIP3      H2            -38.4005905720       15.3215375841        4.7800536648  W2        12851           0.0000000000
     37255     12419  TIP3      OH2           -36.4443505720        0.3767075841        2.0367436648  W2        12852           0.0000000000
     37256     12419  TIP3      H1            -35.9530105720       -0.2530524159        1.5092936648  W2        12852           0.0000000000
     37257     12419  TIP3      H2            -35.8207205720        0.6726475841        2.6998636648  W2        12852           0.0000000000
     37258     12420  TIP3      OH2           -31.4183405720        0.6698575841        4.4937936648  W2        12853           0.0000000000
     37259     12420  TIP3      H1            -31.2402105720        0.0231775841        5.1766536648  W2        12853           0.0000000000
     37260     12420  TIP3      H2            -31.4717205720        1.5036275841        4.9609036648  W2        12853           0.0000000000
     37261     12421  TIP3      OH2           -29.5399605720       15.6182675841        2.8894636648  W2        12854           0.0000000000
     37262     12421  TIP3      H1            -28.6739405720       15.9850075841        2.7112836648  W2        12854           0.0000000000
     37263     12421  TIP3      H2            -29.7866805720       15.1790675841        2.0755436648  W2        12854           0.0000000000
     37264     12422  TIP3      OH2           -22.8310005720       15.1812975841        5.5685736648  W2        12855           0.0000000000
     37265     12422  TIP3      H1            -23.0252905720       14.4335075841        5.0035336648  W2        12855           0.0000000000
     37266     12422  TIP3      H2            -22.8699905720       15.9393075841        4.9853636648  W2        12855           0.0000000000
     37267     12423  TIP3      OH2           -37.1838005720       -0.8230624159       17.3083436648  W2        12856           0.0000000000
     37268     12423  TIP3      H1            -37.5499805720       -1.5888024159       17.7508136648  W2        12856           0.0000000000
     37269     12423  TIP3      H2            -36.2709505720       -0.7940424159       17.5948536648  W2        12856           0.0000000000
     37270     12424  TIP3      OH2           -36.5861905720       15.3288575841        1.5170536648  W2        12858           0.0000000000
     37271     12424  TIP3      H1            -36.8537305720       15.6151475841        2.3903636648  W2        12858           0.0000000000
     37272     12424  TIP3      H2            -35.8149305720       14.7827775841        1.6693036648  W2        12858           0.0000000000
     37273     12425  TIP3      OH2           -23.6133805720       13.9325375841       17.7187536648  W2        12860           0.0000000000
     37274     12425  TIP3      H1            -24.3951905720       13.7463375841       17.1988136648  W2        12860           0.0000000000
     37275     12425  TIP3      H2            -23.6853905720       14.8619675841       17.9360036648  W2        12860           0.0000000000
     37276     12426  TIP3      OH2            -9.2073405720        7.8189775841        7.7494736648  W2        12861           0.0000000000
     37277     12426  TIP3      H1             -9.1182305720        8.7627975841        7.6171836648  W2        12861           0.0000000000
     37278     12426  TIP3      H2             -9.8455805720        7.5436175841        7.0914136648  W2        12861           0.0000000000
     37279     12427  TIP3      OH2           -10.2742105720        7.0740475841       11.1682936648  W2        12862           0.0000000000
     37280     12427  TIP3      H1            -10.3124605720        6.4276775841       11.8732536648  W2        12862           0.0000000000
     37281     12427  TIP3      H2            -10.5965605720        6.6074875841       10.3971636648  W2        12862           0.0000000000
     37282     12428  TIP3      OH2           -17.9057105720        6.6882575841       12.7612836648  W2        12863           0.0000000000
     37283     12428  TIP3      H1            -17.8645005720        6.0625875841       13.4845236648  W2        12863           0.0000000000
     37284     12428  TIP3      H2            -17.2029405720        7.3121175841       12.9433236648  W2        12863           0.0000000000
     37285     12429  TIP3      OH2            -6.5681905720       10.0130875841        9.4698036648  W2        12864           0.0000000000
     37286     12429  TIP3      H1             -7.0089205720        9.2926875841        9.9203636648  W2        12864           0.0000000000
     37287     12429  TIP3      H2             -6.5812205720       10.7338075841       10.0995736648  W2        12864           0.0000000000
     37288     12430  TIP3      OH2           -16.9824005720       11.1381475841       11.2961936648  W2        12865           0.0000000000
     37289     12430  TIP3      H1            -17.3518805720       10.3361975841       10.9266236648  W2        12865           0.0000000000
     37290     12430  TIP3      H2            -16.0412905720       10.9696375841       11.3425336648  W2        12865           0.0000000000
     37291     12431  TIP3      OH2           -20.3723505720        4.7984075841        6.6890736648  W2        12866           0.0000000000
     37292     12431  TIP3      H1            -20.8200105720        5.6442775841        6.6707236648  W2        12866           0.0000000000
     37293     12431  TIP3      H2            -20.9332305720        4.2188275841        6.1735836648  W2        12866           0.0000000000
     37294     12432  TIP3      OH2           -19.6617405720        6.9603675841        8.8148736648  W2        12867           0.0000000000
     37295     12432  TIP3      H1            -19.4483905720        6.1905275841        9.3421736648  W2        12867           0.0000000000
     37296     12432  TIP3      H2            -18.9239805720        7.0500375841        8.2116336648  W2        12867           0.0000000000
     37297     12433  TIP3      OH2            -9.4566405720       15.1172575841        9.6818436648  W2        12868           0.0000000000
     37298     12433  TIP3      H1             -8.8370005720       14.4407275841        9.4087636648  W2        12868           0.0000000000
     37299     12433  TIP3      H2             -9.6649005720       14.8993375841       10.5903336648  W2        12868           0.0000000000
     37300     12434  TIP3      OH2           -11.8847705720        9.5061875841       11.5743936648  W2        12869           0.0000000000
     37301     12434  TIP3      H1            -11.5809805720        8.8203275841       10.9798036648  W2        12869           0.0000000000
     37302     12434  TIP3      H2            -11.1633705720        9.6250575841       12.1921936648  W2        12869           0.0000000000
     37303     12435  TIP3      OH2            -3.2217905720        1.1077175841       12.4350136648  W2        12870           0.0000000000
     37304     12435  TIP3      H1             -3.1725705720        1.7178375841       13.1709236648  W2        12870           0.0000000000
     37305     12435  TIP3      H2             -2.7962805720        1.5688075841       11.7121236648  W2        12870           0.0000000000
     37306     12436  TIP3      OH2            -8.7440705720        3.9004275841       11.9018736648  W2        12871           0.0000000000
     37307     12436  TIP3      H1             -8.6014805720        2.9541275841       11.9220336648  W2        12871           0.0000000000
     37308     12436  TIP3      H2             -8.8501705720        4.1074075841       10.9733636648  W2        12871           0.0000000000
     37309     12437  TIP3      OH2           -15.5892405720        2.0020675841        9.1743536648  W2        12872           0.0000000000
     37310     12437  TIP3      H1            -15.5461305720        2.8619175841        8.7559836648  W2        12872           0.0000000000
     37311     12437  TIP3      H2            -16.0468305720        1.4495375841        8.5406736648  W2        12872           0.0000000000
     37312     12438  TIP3      OH2            -7.8669705720        2.1326275841        7.5751836648  W2        12873           0.0000000000
     37313     12438  TIP3      H1             -7.2205405720        1.8039475841        8.1999436648  W2        12873           0.0000000000
     37314     12438  TIP3      H2             -7.3570305720        2.6505275841        6.9523236648  W2        12873           0.0000000000
     37315     12439  TIP3      OH2           -18.9690905720        4.3986475841        9.9364936648  W2        12874           0.0000000000
     37316     12439  TIP3      H1            -18.3154305720        3.8488175841       10.3685036648  W2        12874           0.0000000000
     37317     12439  TIP3      H2            -18.9451605720        4.1245475841        9.0196936648  W2        12874           0.0000000000
     37318     12440  TIP3      OH2           -13.8126405720        5.9487775841        9.1516436648  W2        12875           0.0000000000
     37319     12440  TIP3      H1            -13.1965405720        5.4223175841        9.6610436648  W2        12875           0.0000000000
     37320     12440  TIP3      H2            -14.3987605720        5.3086475841        8.7480036648  W2        12875           0.0000000000
     37321     12441  TIP3      OH2            -2.8303305720        2.5856375841       14.6709936648  W2        12876           0.0000000000
     37322     12441  TIP3      H1             -3.5188705720        3.2437075841       14.5756536648  W2        12876           0.0000000000
     37323     12441  TIP3      H2             -2.8148705720        2.3884275841       15.6075336648  W2        12876           0.0000000000
     37324     12442  TIP3      OH2           -16.7790505720        0.9199075841       13.2484336648  W2        12877           0.0000000000
     37325     12442  TIP3      H1            -16.9978805720        1.4499675841       12.4820336648  W2        12877           0.0000000000
     37326     12442  TIP3      H2            -17.4469605720        1.1464575841       13.8955736648  W2        12877           0.0000000000
     37327     12443  TIP3      OH2            -9.4100705720       10.4200175841        6.7923436648  W2        12878           0.0000000000
     37328     12443  TIP3      H1             -9.7055605720       10.0972475841        5.9410336648  W2        12878           0.0000000000
     37329     12443  TIP3      H2             -9.7342905720       11.3196875841        6.8336036648  W2        12878           0.0000000000
     37330     12444  TIP3      OH2           -14.2099105720        8.5954775841       13.5358036648  W2        12879           0.0000000000
     37331     12444  TIP3      H1            -14.9500005720        9.1936275841       13.6393236648  W2        12879           0.0000000000
     37332     12444  TIP3      H2            -13.4959605720        9.1494375841       13.2201636648  W2        12879           0.0000000000
     37333     12445  TIP3      OH2            -6.1031305720        1.4235575841        9.5557736648  W2        12880           0.0000000000
     37334     12445  TIP3      H1             -6.3183305720        0.6578975841       10.0883736648  W2        12880           0.0000000000
     37335     12445  TIP3      H2             -5.4473905720        1.8960175841       10.0686236648  W2        12880           0.0000000000
     37336     12446  TIP3      OH2           -17.1853205720        2.8120875841       11.2006536648  W2        12881           0.0000000000
     37337     12446  TIP3      H1            -16.5716905720        3.4448475841       11.5738936648  W2        12881           0.0000000000
     37338     12446  TIP3      H2            -16.6732505720        2.3395875841       10.5443436648  W2        12881           0.0000000000
     37339     12447  TIP3      OH2           -15.8024805720       10.5597775841       14.3229536648  W2        12882           0.0000000000
     37340     12447  TIP3      H1            -15.8077205720       11.4391275841       13.9448836648  W2        12882           0.0000000000
     37341     12447  TIP3      H2            -16.6560705720       10.4761875841       14.7479436648  W2        12882           0.0000000000
     37342     12448  TIP3      OH2           -19.6813905720       10.2305675841        5.1048836648  W2        12883           0.0000000000
     37343     12448  TIP3      H1            -19.9533005720       10.4596675841        4.2161736648  W2        12883           0.0000000000
     37344     12448  TIP3      H2            -19.6358205720       11.0684475841        5.5654136648  W2        12883           0.0000000000
     37345     12449  TIP3      OH2            -6.0564205720       11.8521575841       11.8177336648  W2        12884           0.0000000000
     37346     12449  TIP3      H1             -6.9980505720       11.9105475841       11.9794236648  W2        12884           0.0000000000
     37347     12449  TIP3      H2             -5.7798105720       12.7582075841       11.6807036648  W2        12884           0.0000000000
     37348     12450  TIP3      OH2            -5.7557205720        0.1386875841       13.2351236648  W2        12885           0.0000000000
     37349     12450  TIP3      H1             -6.4918005720        0.7493975841       13.1972536648  W2        12885           0.0000000000
     37350     12450  TIP3      H2             -5.0723205720        0.5535875841       12.7087636648  W2        12885           0.0000000000
     37351     12451  TIP3      OH2           -12.7525805720       -1.7745824159       10.7009236648  W2        12886           0.0000000000
     37352     12451  TIP3      H1            -12.8701605720       -2.7229824159       10.6467536648  W2        12886           0.0000000000
     37353     12451  TIP3      H2            -13.6075705720       -1.4419724159       10.9740336648  W2        12886           0.0000000000
     37354     12452  TIP3      OH2            -7.8043005720       13.6335075841        8.4428936648  W2        12887           0.0000000000
     37355     12452  TIP3      H1             -7.3790705720       12.9262975841        7.9578536648  W2        12887           0.0000000000
     37356     12452  TIP3      H2             -7.4873005720       14.4347775841        8.0261136648  W2        12887           0.0000000000
     37357     12453  TIP3      OH2            -6.6446505720       11.5343575841        6.9515536648  W2        12888           0.0000000000
     37358     12453  TIP3      H1             -6.9021705720       10.8443675841        6.3401436648  W2        12888           0.0000000000
     37359     12453  TIP3      H2             -6.5735705720       11.0914775841        7.7971436648  W2        12888           0.0000000000
     37360     12454  TIP3      OH2            -4.9586305720       10.1010275841       15.4289036648  W2        12889           0.0000000000
     37361     12454  TIP3      H1             -4.8190005720        9.5092775841       14.6896036648  W2        12889           0.0000000000
     37362     12454  TIP3      H2             -4.7913505720       10.9736175841       15.0727836648  W2        12889           0.0000000000
     37363     12455  TIP3      OH2           -10.4860905720        7.0629775841        5.2015036648  W2        12890           0.0000000000
     37364     12455  TIP3      H1            -11.1975405720        7.5979475841        4.8495536648  W2        12890           0.0000000000
     37365     12455  TIP3      H2             -9.7951305720        7.1181875841        4.5413936648  W2        12890           0.0000000000
     37366     12456  TIP3      OH2           -10.4321705720        5.5204075841        2.2400036648  W2        12891           0.0000000000
     37367     12456  TIP3      H1             -9.7311805720        5.5430975841        2.8914036648  W2        12891           0.0000000000
     37368     12456  TIP3      H2            -10.1298805720        4.8923775841        1.5839336648  W2        12891           0.0000000000
     37369     12457  TIP3      OH2            -3.1167005720        6.4408275841       13.4949436648  W2        12892           0.0000000000
     37370     12457  TIP3      H1             -3.7692905720        7.1353875841       13.5840336648  W2        12892           0.0000000000
     37371     12457  TIP3      H2             -2.6516705720        6.6509175841       12.6851036648  W2        12892           0.0000000000
     37372     12458  TIP3      OH2            -7.0803205720        7.2723075841        6.1530936648  W2        12893           0.0000000000
     37373     12458  TIP3      H1             -7.8122205720        7.5006775841        6.7261536648  W2        12893           0.0000000000
     37374     12458  TIP3      H2             -6.6331005720        6.5585775841        6.6078436648  W2        12893           0.0000000000
     37375     12459  TIP3      OH2            -7.1829705720        5.4465675841       15.2207936648  W2        12894           0.0000000000
     37376     12459  TIP3      H1             -7.1030605720        6.2100075841       15.7926436648  W2        12894           0.0000000000
     37377     12459  TIP3      H2             -7.7842005720        5.7258075841       14.5303036648  W2        12894           0.0000000000
     37378     12460  TIP3      OH2           -15.4349505720        7.9029275841        8.0355936648  W2        12895           0.0000000000
     37379     12460  TIP3      H1            -15.7654305720        7.5322675841        7.2172936648  W2        12895           0.0000000000
     37380     12460  TIP3      H2            -14.8465405720        7.2323275841        8.3824236648  W2        12895           0.0000000000
     37381     12461  TIP3      OH2           -14.0682005720       11.3309875841       10.7168136648  W2        12896           0.0000000000
     37382     12461  TIP3      H1            -14.1630705720       10.7522975841        9.9602736648  W2        12896           0.0000000000
     37383     12461  TIP3      H2            -13.3388405720       10.9595575841       11.2130936648  W2        12896           0.0000000000
     37384     12462  TIP3      OH2           -15.0684005720        6.6714875841       11.6690936648  W2        12897           0.0000000000
     37385     12462  TIP3      H1            -14.5031505720        6.7929075841       10.9062136648  W2        12897           0.0000000000
     37386     12462  TIP3      H2            -14.7495105720        7.3089875841       12.3079436648  W2        12897           0.0000000000
     37387     12463  TIP3      OH2            -8.7591805720       12.1746775841       12.4031436648  W2        12898           0.0000000000
     37388     12463  TIP3      H1             -8.9995205720       12.8369875841       13.0510636648  W2        12898           0.0000000000
     37389     12463  TIP3      H2             -8.9573605720       11.3401975841       12.8281036648  W2        12898           0.0000000000
     37390     12464  TIP3      OH2           -14.1883305720       11.0707575841       16.3862836648  W2        12899           0.0000000000
     37391     12464  TIP3      H1            -14.4995805720       11.8530775841       16.8416036648  W2        12899           0.0000000000
     37392     12464  TIP3      H2            -14.8383105720       10.9176675841       15.7004836648  W2        12899           0.0000000000
     37393     12465  TIP3      OH2            -8.2093705720        6.4345975841        3.8382136648  W2        12900           0.0000000000
     37394     12465  TIP3      H1             -7.6298205720        6.5846275841        4.5851036648  W2        12900           0.0000000000
     37395     12465  TIP3      H2             -7.7953705720        6.9053375841        3.1148536648  W2        12900           0.0000000000
     37396     12466  TIP3      OH2           -17.2683405720        7.2688675841       15.6148536648  W2        12901           0.0000000000
     37397     12466  TIP3      H1            -17.1980205720        7.9195475841       16.3133536648  W2        12901           0.0000000000
     37398     12466  TIP3      H2            -18.1591205720        7.3716175841       15.2799436648  W2        12901           0.0000000000
     37399     12467  TIP3      OH2           -10.4828805720       13.1714475841        7.2735236648  W2        12902           0.0000000000
     37400     12467  TIP3      H1            -10.0091205720       13.4670775841        8.0509436648  W2        12902           0.0000000000
     37401     12467  TIP3      H2            -11.0459505720       13.9096075841        7.0404836648  W2        12902           0.0000000000
     37402     12468  TIP3      OH2           -15.9487405720       13.1422575841       17.1496636648  W2        12903           0.0000000000
     37403     12468  TIP3      H1            -15.9412105720       13.0062275841       16.2022136648  W2        12903           0.0000000000
     37404     12468  TIP3      H2            -16.8647005720       13.0250675841       17.4016636648  W2        12903           0.0000000000
     37405     12469  TIP3      OH2            -4.5105305720       -1.8153624159        3.6511836648  W2        12904           0.0000000000
     37406     12469  TIP3      H1             -5.4104605720       -1.6764624159        3.9462436648  W2        12904           0.0000000000
     37407     12469  TIP3      H2             -4.2586905720       -0.9839024159        3.2493536648  W2        12904           0.0000000000
     37408     12470  TIP3      OH2           -16.4446805720        6.9723575841        5.6248736648  W2        12905           0.0000000000
     37409     12470  TIP3      H1            -16.7365505720        7.7405275841        5.1340036648  W2        12905           0.0000000000
     37410     12470  TIP3      H2            -17.1191605720        6.3129775841        5.4620136648  W2        12905           0.0000000000
     37411     12471  TIP3      OH2            -3.3213905720       12.5508775841        2.0275736648  W2        12906           0.0000000000
     37412     12471  TIP3      H1             -3.2480405720       13.4898975841        2.1981036648  W2        12906           0.0000000000
     37413     12471  TIP3      H2             -2.4158805720       12.2457375841        1.9713036648  W2        12906           0.0000000000
     37414     12472  TIP3      OH2           -20.3516705720        9.3352775841       14.4398536648  W2        12907           0.0000000000
     37415     12472  TIP3      H1            -20.8528305720        9.3072175841       13.6248236648  W2        12907           0.0000000000
     37416     12472  TIP3      H2            -20.3463005720        8.4295975841       14.7495836648  W2        12907           0.0000000000
     37417     12473  TIP3      OH2           -20.6014005720       12.1156575841       11.3238736648  W2        12908           0.0000000000
     37418     12473  TIP3      H1            -19.6553405720       11.9713575841       11.3048236648  W2        12908           0.0000000000
     37419     12473  TIP3      H2            -20.7137705720       12.8999375841       11.8609936648  W2        12908           0.0000000000
     37420     12474  TIP3      OH2            -2.4035505720       12.7816275841       17.0062436648  W2        12909           0.0000000000
     37421     12474  TIP3      H1             -2.4528705720       11.8264375841       16.9690036648  W2        12909           0.0000000000
     37422     12474  TIP3      H2             -3.2303205720       13.0491575841       17.4076236648  W2        12909           0.0000000000
     37423     12475  TIP3      OH2           -11.4251505720       12.3555475841       15.8823836648  W2        12910           0.0000000000
     37424     12475  TIP3      H1            -11.3376905720       13.1820075841       16.3572936648  W2        12910           0.0000000000
     37425     12475  TIP3      H2            -12.2886405720       12.0259275841       16.1313136648  W2        12910           0.0000000000
     37426     12476  TIP3      OH2           -11.0105705720       16.1279175841        5.6884436648  W2        12911           0.0000000000
     37427     12476  TIP3      H1            -11.0859705720       16.0066375841        4.7419636648  W2        12911           0.0000000000
     37428     12476  TIP3      H2            -10.9777005720       17.0771875841        5.8069036648  W2        12911           0.0000000000
     37429     12477  TIP3      OH2           -17.3571905720       14.9166175841        7.4693436648  W2        12912           0.0000000000
     37430     12477  TIP3      H1            -17.2051505720       14.5686575841        8.3479936648  W2        12912           0.0000000000
     37431     12477  TIP3      H2            -18.2081505720       14.5603475841        7.2140636648  W2        12912           0.0000000000
     37432     12478  TIP3      OH2            -7.9089705720       15.2819375841        2.6906836648  W2        12913           0.0000000000
     37433     12478  TIP3      H1             -7.5341305720       14.5375475841        2.2199436648  W2        12913           0.0000000000
     37434     12478  TIP3      H2             -7.9046005720       15.0119975841        3.6090136648  W2        12913           0.0000000000
     37435     12479  TIP3      OH2            -8.2401605720       15.2076475841        5.4399036648  W2        12914           0.0000000000
     37436     12479  TIP3      H1             -9.1751805720       15.3078375841        5.6186036648  W2        12914           0.0000000000
     37437     12479  TIP3      H2             -7.9599705720       14.4982475841        6.0182236648  W2        12914           0.0000000000
     37438     12480  TIP3      OH2            -5.2515705720        4.2748775841       17.4864636648  W2        12915           0.0000000000
     37439     12480  TIP3      H1             -5.6588905720        4.7554375841       16.7657936648  W2        12915           0.0000000000
     37440     12480  TIP3      H2             -5.2110005720        3.3694775841       17.1785436648  W2        12915           0.0000000000
     37441     12481  TIP3      OH2           -18.1026205720       10.6588175841       15.4831336648  W2        12916           0.0000000000
     37442     12481  TIP3      H1            -17.8864905720       10.2973775841       16.3427136648  W2        12916           0.0000000000
     37443     12481  TIP3      H2            -18.9581505720       10.2841975841       15.2734836648  W2        12916           0.0000000000
     37444     12482  TIP3      OH2           -15.4838205720       -0.8711324159       11.4785536648  W2        12917           0.0000000000
     37445     12482  TIP3      H1            -16.3454505720       -0.9583124159       11.0708436648  W2        12917           0.0000000000
     37446     12482  TIP3      H2            -15.5062505720       -0.0151224159       11.9063136648  W2        12917           0.0000000000
     37447     12483  TIP3      OH2           -10.8210405720       -1.1490924159       14.8532536648  W2        12918           0.0000000000
     37448     12483  TIP3      H1            -10.4007305720       -1.5643824159       15.6063136648  W2        12918           0.0000000000
     37449     12483  TIP3      H2            -11.7540805720       -1.3277624159       14.9704536648  W2        12918           0.0000000000
     37450     12484  TIP3      OH2            -7.4945505720        2.6064275841       15.7067036648  W2        12919           0.0000000000
     37451     12484  TIP3      H1             -8.0086005720        2.4806475841       16.5043036648  W2        12919           0.0000000000
     37452     12484  TIP3      H2             -7.6500805720        3.5187375841       15.4623236648  W2        12919           0.0000000000
     37453     12485  TIP3      OH2            -6.7320605720        7.4674275841        1.4680036648  W2        12920           0.0000000000
     37454     12485  TIP3      H1             -6.6899805720        7.2448175841        0.5380036648  W2        12920           0.0000000000
     37455     12485  TIP3      H2             -5.8828505720        7.8661375841        1.6579936648  W2        12920           0.0000000000
     37456     12486  TIP3      OH2           -11.1593105720        1.3432475841        2.1383336648  W2        12921           0.0000000000
     37457     12486  TIP3      H1            -11.4128305720        1.3624075841        3.0611436648  W2        12921           0.0000000000
     37458     12486  TIP3      H2            -11.4161005720        0.4717875841        1.8369536648  W2        12921           0.0000000000
     37459     12487  TIP3      OH2           -15.3928105720        4.0943175841       12.5735736648  W2        12922           0.0000000000
     37460     12487  TIP3      H1            -16.0346005720        4.0540475841       13.2825836648  W2        12922           0.0000000000
     37461     12487  TIP3      H2            -15.3556105720        5.0207875841       12.3358736648  W2        12922           0.0000000000
     37462     12488  TIP3      OH2           -15.3959005720        4.3153275841        7.4855736648  W2        12923           0.0000000000
     37463     12488  TIP3      H1            -16.2886105720        3.9749375841        7.4269536648  W2        12923           0.0000000000
     37464     12488  TIP3      H2            -14.9452405720        3.9384175841        6.7298936648  W2        12923           0.0000000000
     37465     12489  TIP3      OH2            -9.8603505720        4.7313575841        6.3026536648  W2        12924           0.0000000000
     37466     12489  TIP3      H1            -10.2693205720        5.5462175841        6.0111336648  W2        12924           0.0000000000
     37467     12489  TIP3      H2             -9.1397305720        4.5913675841        5.6883636648  W2        12924           0.0000000000
     37468     12490  TIP3      OH2           -10.7581905720        4.9069975841       17.7907236648  W2        12925           0.0000000000
     37469     12490  TIP3      H1            -11.3208105720        4.2021575841       18.1115036648  W2        12925           0.0000000000
     37470     12490  TIP3      H2             -9.9318505720        4.7861875841       18.2584836648  W2        12925           0.0000000000
     37471     12491  TIP3      OH2            -8.8555805720        4.1773975841        9.1166236648  W2        12926           0.0000000000
     37472     12491  TIP3      H1             -9.0511305720        4.7830775841        8.4016836648  W2        12926           0.0000000000
     37473     12491  TIP3      H2             -8.6743205720        3.3439175841        8.6822536648  W2        12926           0.0000000000
     37474     12492  TIP3      OH2           -17.6427605720        4.4146675841       14.4407736648  W2        12927           0.0000000000
     37475     12492  TIP3      H1            -17.6808205720        4.8148275841       15.3094836648  W2        12927           0.0000000000
     37476     12492  TIP3      H2            -18.1336505720        3.5979075841       14.5310636648  W2        12927           0.0000000000
     37477     12493  TIP3      OH2           -14.2770205720        1.7888975841        1.2393736648  W2        12928           0.0000000000
     37478     12493  TIP3      H1            -14.7079505720        1.3439075841        1.9691136648  W2        12928           0.0000000000
     37479     12493  TIP3      H2            -14.9951505720        2.1605275841        0.7271236648  W2        12928           0.0000000000
     37480     12494  TIP3      OH2           -21.0346805720        1.5308475841        8.2912436648  W2        12929           0.0000000000
     37481     12494  TIP3      H1            -20.4039105720        1.5020575841        9.0106336648  W2        12929           0.0000000000
     37482     12494  TIP3      H2            -20.5852505720        1.1057175841        7.5608336648  W2        12929           0.0000000000
     37483     12495  TIP3      OH2           -19.7604705720        2.2770475841        3.7152836648  W2        12930           0.0000000000
     37484     12495  TIP3      H1            -19.2863005720        2.8680375841        3.1303736648  W2        12930           0.0000000000
     37485     12495  TIP3      H2            -20.4778305720        2.8073375841        4.0622936648  W2        12930           0.0000000000
     37486     12496  TIP3      OH2            -9.5916605720        5.8155275841       13.7878636648  W2        12931           0.0000000000
     37487     12496  TIP3      H1             -9.2681805720        5.1844975841       13.1449136648  W2        12931           0.0000000000
     37488     12496  TIP3      H2            -10.0317305720        5.2807475841       14.4486036648  W2        12931           0.0000000000
     37489     12497  TIP3      OH2           -12.8143705720        1.7430775841        8.5719836648  W2        12932           0.0000000000
     37490     12497  TIP3      H1            -13.7252605720        1.7997575841        8.8605836648  W2        12932           0.0000000000
     37491     12497  TIP3      H2            -12.3090805720        1.6826275841        9.3827036648  W2        12932           0.0000000000
     37492     12498  TIP3      OH2           -17.9860305720        3.3717075841        7.3987436648  W2        12933           0.0000000000
     37493     12498  TIP3      H1            -18.8752305720        3.4712575841        7.0587036648  W2        12933           0.0000000000
     37494     12498  TIP3      H2            -17.6895405720        2.5300075841        7.0525336648  W2        12933           0.0000000000
     37495     12499  TIP3      OH2           -14.3328505720        3.3719675841        5.0552036648  W2        12934           0.0000000000
     37496     12499  TIP3      H1            -13.4013005720        3.5009675841        5.2335136648  W2        12934           0.0000000000
     37497     12499  TIP3      H2            -14.5478205720        4.0413975841        4.4056736648  W2        12934           0.0000000000
     37498     12500  TIP3      OH2            -8.4091805720        0.9777075841       11.8361636648  W2        12935           0.0000000000
     37499     12500  TIP3      H1             -9.0860205720        1.1090175841       12.5001336648  W2        12935           0.0000000000
     37500     12500  TIP3      H2             -8.8946905720        0.8226575841       11.0259336648  W2        12935           0.0000000000
     37501     12501  TIP3      OH2           -15.6588305720        4.5661875841        2.6218136648  W2        12936           0.0000000000
     37502     12501  TIP3      H1            -16.2013205720        4.1865675841        1.9305736648  W2        12936           0.0000000000
     37503     12501  TIP3      H2            -14.8253405720        4.7606575841        2.1932236648  W2        12936           0.0000000000
     37504     12502  TIP3      OH2           -17.5236905720        9.1233775841       17.7209736648  W2        12938           0.0000000000
     37505     12502  TIP3      H1            -16.7914505720        9.3779675841       18.2824236648  W2        12938           0.0000000000
     37506     12502  TIP3      H2            -18.3038205720        9.3279175841       18.2365136648  W2        12938           0.0000000000
     37507     12503  TIP3      OH2           -11.4944005720        4.5303775841       10.4589436648  W2        12939           0.0000000000
     37508     12503  TIP3      H1            -10.9300605720        3.9840375841        9.9119036648  W2        12939           0.0000000000
     37509     12503  TIP3      H2            -11.6420605720        4.0085675841       11.2477036648  W2        12939           0.0000000000
     37510     12504  TIP3      OH2           -16.4924305720        0.6669875841        6.8774236648  W2        12940           0.0000000000
     37511     12504  TIP3      H1            -16.8094805720       -0.2354824159        6.8419636648  W2        12940           0.0000000000
     37512     12504  TIP3      H2            -15.7110205720        0.6687275841        6.3245836648  W2        12940           0.0000000000
     37513     12505  TIP3      OH2           -12.8678105720        2.9189875841       12.8729836648  W2        12941           0.0000000000
     37514     12505  TIP3      H1            -13.7032805720        3.3729375841       12.9832236648  W2        12941           0.0000000000
     37515     12505  TIP3      H2            -12.3437505720        3.1948375841       13.6249736648  W2        12941           0.0000000000
     37516     12506  TIP3      OH2           -12.3235505720        9.1317575841        4.5576236648  W2        12942           0.0000000000
     37517     12506  TIP3      H1            -13.0684505720        8.6242875841        4.2354136648  W2        12942           0.0000000000
     37518     12506  TIP3      H2            -12.4578305720        9.1805575841        5.5041036648  W2        12942           0.0000000000
     37519     12507  TIP3      OH2            -5.1736605720        8.2645775841       13.3443836648  W2        12943           0.0000000000
     37520     12507  TIP3      H1             -4.5317805720        8.7212075841       12.8006036648  W2        12943           0.0000000000
     37521     12507  TIP3      H2             -6.0039705720        8.3778175841       12.8817936648  W2        12943           0.0000000000
     37522     12508  TIP3      OH2            -8.4258705720        1.9457475841        2.7568836648  W2        12944           0.0000000000
     37523     12508  TIP3      H1             -9.3644505720        2.0573075841        2.6057636648  W2        12944           0.0000000000
     37524     12508  TIP3      H2             -8.1286605720        2.8024375841        3.0634536648  W2        12944           0.0000000000
     37525     12509  TIP3      OH2           -10.8043405720        9.3160875841       15.7945336648  W2        12945           0.0000000000
     37526     12509  TIP3      H1            -11.1497305720        8.9343275841       16.6014936648  W2        12945           0.0000000000
     37527     12509  TIP3      H2            -11.0043305720       10.2494475841       15.8658236648  W2        12945           0.0000000000
     37528     12510  TIP3      OH2            -7.7075205720        3.8130175841        4.4176236648  W2        12946           0.0000000000
     37529     12510  TIP3      H1             -6.8156205720        3.6755175841        4.7367436648  W2        12946           0.0000000000
     37530     12510  TIP3      H2             -7.6511605720        4.6036275841        3.8809736648  W2        12946           0.0000000000
     37531     12511  TIP3      OH2           -17.1987205720        8.4267575841       10.3274136648  W2        12947           0.0000000000
     37532     12511  TIP3      H1            -16.4540005720        8.4243275841        9.7260636648  W2        12947           0.0000000000
     37533     12511  TIP3      H2            -17.1210605720        7.6031375841       10.8089236648  W2        12947           0.0000000000
     37534     12512  TIP3      OH2           -10.1981405720       10.5901875841        3.5830836648  W2        12948           0.0000000000
     37535     12512  TIP3      H1            -10.4933005720       11.4169775841        3.9645636648  W2        12948           0.0000000000
     37536     12512  TIP3      H2            -10.9011405720        9.9708775841        3.7792236648  W2        12948           0.0000000000
     37537     12513  TIP3      OH2           -20.1907505720        6.8874475841       15.6422636648  W2        12949           0.0000000000
     37538     12513  TIP3      H1            -19.9678905720        6.4694075841       16.4740136648  W2        12949           0.0000000000
     37539     12513  TIP3      H2            -20.7927405720        6.2749475841       15.2195436648  W2        12949           0.0000000000
     37540     12514  TIP3      OH2            -8.5539805720       11.7776375841       15.7450336648  W2        12951           0.0000000000
     37541     12514  TIP3      H1             -9.4545505720       11.9608975841       15.4774236648  W2        12951           0.0000000000
     37542     12514  TIP3      H2             -8.5198705720       12.0365675841       16.6659136648  W2        12951           0.0000000000
     37543     12515  TIP3      OH2            -2.8226505720        4.0224275841        4.1122936648  W2        12952           0.0000000000
     37544     12515  TIP3      H1             -3.3770205720        3.6262275841        3.4400436648  W2        12952           0.0000000000
     37545     12515  TIP3      H2             -2.7222905720        4.9329475841        3.8346236648  W2        12952           0.0000000000
     37546     12516  TIP3      OH2            -2.8594505720        9.8225975841       16.9494436648  W2        12953           0.0000000000
     37547     12516  TIP3      H1             -3.7106005720       10.0609775841       16.5820836648  W2        12953           0.0000000000
     37548     12516  TIP3      H2             -2.2691105720        9.8059175841       16.1961536648  W2        12953           0.0000000000
     37549     12517  TIP3      OH2            -4.5274805720       12.8084675841        4.5775036648  W2        12954           0.0000000000
     37550     12517  TIP3      H1             -4.9003705720       11.9828475841        4.8865636648  W2        12954           0.0000000000
     37551     12517  TIP3      H2             -4.2501305720       12.6254075841        3.6798436648  W2        12954           0.0000000000
     37552     12518  TIP3      OH2            -7.3670905720        7.6164175841       11.5986936648  W2        12955           0.0000000000
     37553     12518  TIP3      H1             -8.2954005720        7.3846075841       11.5716236648  W2        12955           0.0000000000
     37554     12518  TIP3      H2             -6.9159805720        6.8393975841       11.2685736648  W2        12955           0.0000000000
     37555     12519  TIP3      OH2           -14.8237805720       11.9445775841        7.7315636648  W2        12956           0.0000000000
     37556     12519  TIP3      H1            -14.2965605720       12.7180175841        7.5314436648  W2        12956           0.0000000000
     37557     12519  TIP3      H2            -15.7039305720       12.1694975841        7.4299636648  W2        12956           0.0000000000
     37558     12520  TIP3      OH2           -19.0690105720        6.8069875841        2.3188036648  W2        12957           0.0000000000
     37559     12520  TIP3      H1            -18.4530205720        7.4337075841        2.6982836648  W2        12957           0.0000000000
     37560     12520  TIP3      H2            -19.9307505720        7.1229675841        2.5904536648  W2        12957           0.0000000000
     37561     12521  TIP3      OH2           -13.3965505720        9.6075675841        7.3079936648  W2        12958           0.0000000000
     37562     12521  TIP3      H1            -13.6375505720       10.5330075841        7.3495236648  W2        12958           0.0000000000
     37563     12521  TIP3      H2            -14.1371905720        9.1486975841        7.7043836648  W2        12958           0.0000000000
     37564     12522  TIP3      OH2           -12.8818905720       13.7569275841       13.6231036648  W2        12959           0.0000000000
     37565     12522  TIP3      H1            -12.5194205720       14.6114875841       13.3895436648  W2        12959           0.0000000000
     37566     12522  TIP3      H2            -12.3503705720       13.4650875841       14.3637336648  W2        12959           0.0000000000
     37567     12523  TIP3      OH2           -14.7134705720       14.6293275841        6.8532136648  W2        12960           0.0000000000
     37568     12523  TIP3      H1            -15.6634205720       14.7350675841        6.9045436648  W2        12960           0.0000000000
     37569     12523  TIP3      H2            -14.3616605720       15.4500675841        7.1979636648  W2        12960           0.0000000000
     37570     12524  TIP3      OH2            -9.3378105720        9.8559975841       13.3236636648  W2        12961           0.0000000000
     37571     12524  TIP3      H1             -9.7636805720        9.6281675841       14.1500636648  W2        12961           0.0000000000
     37572     12524  TIP3      H2             -8.7572305720        9.1171775841       13.1411936648  W2        12961           0.0000000000
     37573     12525  TIP3      OH2            -7.1349205720       10.7850475841        2.3975636648  W2        12962           0.0000000000
     37574     12525  TIP3      H1             -6.7816105720       10.4050275841        3.2019136648  W2        12962           0.0000000000
     37575     12525  TIP3      H2             -8.0835705720       10.6915275841        2.4844936648  W2        12962           0.0000000000
     37576     12526  TIP3      OH2            -6.6793905720       14.4079475841       15.7931436648  W2        12963           0.0000000000
     37577     12526  TIP3      H1             -7.2810705720       13.8522375841       15.2977736648  W2        12963           0.0000000000
     37578     12526  TIP3      H2             -6.3980205720       15.0749275841       15.1668836648  W2        12963           0.0000000000
     37579     12527  TIP3      OH2            -2.6314805720       15.2642975841        2.5985836648  W2        12964           0.0000000000
     37580     12527  TIP3      H1             -1.8876905720       15.8503475841        2.4587436648  W2        12964           0.0000000000
     37581     12527  TIP3      H2             -3.3256705720       15.8328775841        2.9318236648  W2        12964           0.0000000000
     37582     12528  TIP3      OH2           -18.5568005720        1.6407175841       15.2004036648  W2        12965           0.0000000000
     37583     12528  TIP3      H1            -19.4495705720        1.9792575841       15.1328036648  W2        12965           0.0000000000
     37584     12528  TIP3      H2            -18.6555205720        0.7853275841       15.6184836648  W2        12965           0.0000000000
     37585     12529  TIP3      OH2            -6.2689905720        9.4572475841        4.6243536648  W2        12966           0.0000000000
     37586     12529  TIP3      H1             -6.5462305720        8.7291775841        5.1804636648  W2        12966           0.0000000000
     37587     12529  TIP3      H2             -5.3416905720        9.5764475841        4.8296136648  W2        12966           0.0000000000
     37588     12530  TIP3      OH2           -18.9056005720       13.4451575841       13.6353436648  W2        12967           0.0000000000
     37589     12530  TIP3      H1            -18.6885705720       12.5133975841       13.6043136648  W2        12967           0.0000000000
     37590     12530  TIP3      H2            -18.6592505720       13.7196575841       14.5186236648  W2        12967           0.0000000000
     37591     12531  TIP3      OH2           -13.0441405720       11.8966575841        0.8445636648  W2        12968           0.0000000000
     37592     12531  TIP3      H1            -12.8051605720       11.1484675841        0.2974536648  W2        12968           0.0000000000
     37593     12531  TIP3      H2            -13.3130105720       11.5088275841        1.6773436648  W2        12968           0.0000000000
     37594     12532  TIP3      OH2           -14.1070805720       11.4670375841        3.3008236648  W2        12969           0.0000000000
     37595     12532  TIP3      H1            -13.9602805720       10.9470175841        4.0909136648  W2        12969           0.0000000000
     37596     12532  TIP3      H2            -14.1099105720       12.3737975841        3.6074136648  W2        12969           0.0000000000
     37597     12533  TIP3      OH2           -17.6539705720        8.7193675841        3.8113636648  W2        12970           0.0000000000
     37598     12533  TIP3      H1            -18.3400405720        9.0716175841        4.3783336648  W2        12970           0.0000000000
     37599     12533  TIP3      H2            -17.1311805720        9.4823275841        3.5647936648  W2        12970           0.0000000000
     37600     12534  TIP3      OH2            -9.8224605720        1.3817475841       14.0902636648  W2        12971           0.0000000000
     37601     12534  TIP3      H1             -9.1236705720        1.4556175841       14.7402336648  W2        12971           0.0000000000
     37602     12534  TIP3      H2            -10.2033205720        0.5172475841       14.2445536648  W2        12971           0.0000000000
     37603     12535  TIP3      OH2            -9.0379705720        1.0339175841        5.1874936648  W2        12972           0.0000000000
     37604     12535  TIP3      H1             -8.8181405720        1.5054575841        4.3840336648  W2        12972           0.0000000000
     37605     12535  TIP3      H2             -8.4795705720        1.4281775841        5.8575536648  W2        12972           0.0000000000
     37606     12536  TIP3      OH2           -11.3693605720       13.1643975841        4.0502436648  W2        12973           0.0000000000
     37607     12536  TIP3      H1            -12.1857505720       13.6613675841        4.1026736648  W2        12973           0.0000000000
     37608     12536  TIP3      H2            -10.8397305720       13.6397475841        3.4101236648  W2        12973           0.0000000000
     37609     12537  TIP3      OH2           -11.8379805720        2.7617975841        6.0223336648  W2        12974           0.0000000000
     37610     12537  TIP3      H1            -11.0257205720        3.2661175841        6.0685036648  W2        12974           0.0000000000
     37611     12537  TIP3      H2            -12.0826805720        2.6167675841        6.9362936648  W2        12974           0.0000000000
     37612     12538  TIP3      OH2           -11.3023405720        3.7480675841       15.2069936648  W2        12975           0.0000000000
     37613     12538  TIP3      H1            -11.1833105720        4.3216075841       15.9640336648  W2        12975           0.0000000000
     37614     12538  TIP3      H2            -10.6468805720        3.0600075841       15.3217736648  W2        12975           0.0000000000
     37615     12539  TIP3      OH2           -10.9543105720       -0.1569024159        6.9604436648  W2        12976           0.0000000000
     37616     12539  TIP3      H1            -11.3009605720        0.4601575841        7.6048736648  W2        12976           0.0000000000
     37617     12539  TIP3      H2            -10.2956205720        0.3436675841        6.4789936648  W2        12976           0.0000000000
     37618     12540  TIP3      OH2           -14.0310505720       14.2081175841        4.0319336648  W2        12977           0.0000000000
     37619     12540  TIP3      H1            -13.8701805720       15.0078675841        3.5311936648  W2        12977           0.0000000000
     37620     12540  TIP3      H2            -14.2282705720       14.5147175841        4.9169936648  W2        12977           0.0000000000
     37621     12541  TIP3      OH2           -15.2966105720        0.9060375841        3.6476936648  W2        12978           0.0000000000
     37622     12541  TIP3      H1            -15.3801305720        1.7943475841        3.9943336648  W2        12978           0.0000000000
     37623     12541  TIP3      H2            -14.4065805720        0.6407075841        3.8793736648  W2        12978           0.0000000000
     37624     12542  TIP3      OH2            -5.0977605720        1.6550975841       16.0419636648  W2        12979           0.0000000000
     37625     12542  TIP3      H1             -6.0141805720        1.9172675841       15.9543336648  W2        12979           0.0000000000
     37626     12542  TIP3      H2             -4.7622605720        1.6519975841       15.1454936648  W2        12979           0.0000000000
     37627     12543  TIP3      OH2            -6.4956605720        5.4051975841       10.1376936648  W2        12980           0.0000000000
     37628     12543  TIP3      H1             -7.2932205720        4.9902175841        9.8091936648  W2        12980           0.0000000000
     37629     12543  TIP3      H2             -6.0505505720        4.7145675841       10.6287436648  W2        12980           0.0000000000
     37630     12544  TIP3      OH2           -17.0380805720       11.3332575841        2.7081436648  W2        12981           0.0000000000
     37631     12544  TIP3      H1            -16.4459305720       12.0327375841        2.9843836648  W2        12981           0.0000000000
     37632     12544  TIP3      H2            -16.5787805720       10.9002075841        1.9886036648  W2        12981           0.0000000000
     37633     12545  TIP3      OH2           -18.7221605720        3.9975575841        1.8240836648  W2        12982           0.0000000000
     37634     12545  TIP3      H1            -18.7669005720        4.9368675841        2.0027836648  W2        12982           0.0000000000
     37635     12545  TIP3      H2            -19.6098405720        3.7620475841        1.5542936648  W2        12982           0.0000000000
     37636     12546  TIP3      OH2            -5.4092005720       14.6614475841       11.7600436648  W2        12983           0.0000000000
     37637     12546  TIP3      H1             -5.5647705720       15.3398875841       11.1029736648  W2        12983           0.0000000000
     37638     12546  TIP3      H2             -4.4765605720       14.7333775841       11.9631036648  W2        12983           0.0000000000
     37639     12547  TIP3      OH2           -17.9139605720       -1.2207824159       10.4971836648  W2        12984           0.0000000000
     37640     12547  TIP3      H1            -18.1429805720       -1.1615324159        9.5696836648  W2        12984           0.0000000000
     37641     12547  TIP3      H2            -18.3566205720       -2.0122324159       10.8035936648  W2        12984           0.0000000000
     37642     12548  TIP3      OH2           -18.9836305720       12.7199275841        6.6577636648  W2        12985           0.0000000000
     37643     12548  TIP3      H1            -19.8157705720       13.1921975841        6.6849036648  W2        12985           0.0000000000
     37644     12548  TIP3      H2            -18.4378005720       13.2296875841        6.0590736648  W2        12985           0.0000000000
     37645     12549  TIP3      OH2           -11.0059605720       13.7597975841        0.9831636648  W2        12988           0.0000000000
     37646     12549  TIP3      H1            -11.6498605720       13.1286575841        1.3045336648  W2        12988           0.0000000000
     37647     12549  TIP3      H2            -10.2441305720       13.2285975841        0.7515136648  W2        12988           0.0000000000
     37648     12550  TIP3      OH2            -6.4016705720       13.5767875841        1.2169636648  W2        12990           0.0000000000
     37649     12550  TIP3      H1             -6.1186305720       12.7823075841        1.6696536648  W2        12990           0.0000000000
     37650     12550  TIP3      H2             -5.6618805720       13.8098875841        0.6560736648  W2        12990           0.0000000000
     37651     12551  TIP3      OH2           -15.4469405720        9.4862775841        1.0744536648  W2        12992           0.0000000000
     37652     12551  TIP3      H1            -15.3825305720        8.6922375841        1.6050936648  W2        12992           0.0000000000
     37653     12551  TIP3      H2            -14.7940205720        9.3675575841        0.3846536648  W2        12992           0.0000000000
     37654     12552  TIP3      OH2           -10.0946005720       10.5334475841        0.8102536648  W2        12994           0.0000000000
     37655     12552  TIP3      H1            -10.3631905720       10.7136575841        1.7111436648  W2        12994           0.0000000000
     37656     12552  TIP3      H2            -10.3010405720        9.6080675841        0.6788336648  W2        12994           0.0000000000
     37657     12553  TIP3      OH2            -7.3981805720        9.0282475841       15.7578636648  W2        12995           0.0000000000
     37658     12553  TIP3      H1             -6.6527005720        9.6166175841       15.6382636648  W2        12995           0.0000000000
     37659     12553  TIP3      H2             -8.1555005720        9.6102175841       15.8211736648  W2        12995           0.0000000000
     37660     12554  TIP3      OH2           -14.2975605720        7.4588975841        3.3802536648  W2        12997           0.0000000000
     37661     12554  TIP3      H1            -14.7573605720        6.9747275841        4.0661036648  W2        12997           0.0000000000
     37662     12554  TIP3      H2            -14.0426905720        6.7904375841        2.7443036648  W2        12997           0.0000000000
     37663     12555  TIP3      OH2           -15.0086305720        5.3516075841       15.7362136648  W2        12998           0.0000000000
     37664     12555  TIP3      H1            -15.6270205720        6.0262675841       16.0166836648  W2        12998           0.0000000000
     37665     12555  TIP3      H2            -14.6645105720        5.6729975841       14.9028336648  W2        12998           0.0000000000
     37666     12556  TIP3      OH2           -13.2265205720        5.7020775841        1.6425736648  W2        12999           0.0000000000
     37667     12556  TIP3      H1            -13.4070205720        5.5471975841        0.7154036648  W2        12999           0.0000000000
     37668     12556  TIP3      H2            -12.2764705720        5.8099475841        1.6873636648  W2        12999           0.0000000000
     37669     12557  TIP3      OH2            -3.8366905720        8.0564975841        1.0883836648  W2        13001           0.0000000000
     37670     12557  TIP3      H1             -4.1102105720        7.6320475841        0.2752136648  W2        13001           0.0000000000
     37671     12557  TIP3      H2             -3.7972805720        8.9879475841        0.8714236648  W2        13001           0.0000000000
     37672     12558  TIP3      OH2           -14.6692605720        2.7066875841       16.8185236648  W2        13002           0.0000000000
     37673     12558  TIP3      H1            -14.5191705720        1.9778175841       16.2164936648  W2        13002           0.0000000000
     37674     12558  TIP3      H2            -14.6670205720        3.4838575841       16.2597436648  W2        13002           0.0000000000
     37675     12559  TIP3      OH2           -14.2566905720        1.0762675841       14.3112636648  W2        13003           0.0000000000
     37676     12559  TIP3      H1            -13.7209405720        1.5279375841       13.6591936648  W2        13003           0.0000000000
     37677     12559  TIP3      H2            -15.1087305720        0.9682475841       13.8886736648  W2        13003           0.0000000000
     37678     12560  TIP3      OH2           -12.6748505720        6.5158875841       14.5507836648  W2        13004           0.0000000000
     37679     12560  TIP3      H1            -11.9243705720        6.3596375841       13.9775636648  W2        13004           0.0000000000
     37680     12560  TIP3      H2            -13.0140205720        7.3675475841       14.2753336648  W2        13004           0.0000000000
     37681     12561  TIP3      OH2            -6.9425105720        7.1195875841       17.6565836648  W2        13006           0.0000000000
     37682     12561  TIP3      H1             -7.2240105720        7.8290475841       17.0789636648  W2        13006           0.0000000000
     37683     12561  TIP3      H2             -6.0000805720        7.0468875841       17.5057036648  W2        13006           0.0000000000
     37684     12562  TIP3      OH2           -13.4511405720       -1.4671624159       14.7426236648  W2        13008           0.0000000000
     37685     12562  TIP3      H1            -13.5491805720       -0.5208424159       14.6372436648  W2        13008           0.0000000000
     37686     12562  TIP3      H2            -14.1935205720       -1.8397824159       14.2669736648  W2        13008           0.0000000000
     37687     12563  TIP3      OH2            -9.4714305720        1.9817275841       17.3818136648  W2        13010           0.0000000000
     37688     12563  TIP3      H1            -10.4188905720        2.0136975841       17.5141436648  W2        13010           0.0000000000
     37689     12563  TIP3      H2             -9.1587605720        1.3564375841       18.0356336648  W2        13010           0.0000000000
     37690     12564  TIP3      OH2           -13.2293305720       -2.1734224159       17.4139036648  W2        13013           0.0000000000
     37691     12564  TIP3      H1            -12.5174905720       -2.8132024159       17.3998136648  W2        13013           0.0000000000
     37692     12564  TIP3      H2            -13.3302905720       -1.9065924159       16.5002136648  W2        13013           0.0000000000
     37693     12565  TIP3      OH2           -13.3293505720       16.3924475841        2.6439336648  W2        13015           0.0000000000
     37694     12565  TIP3      H1            -12.3962805720       16.5503175841        2.7877736648  W2        13015           0.0000000000
     37695     12565  TIP3      H2            -13.5934705720       17.0677475841        2.0190836648  W2        13015           0.0000000000
     37696     12566  TIP3      OH2           -19.7608605720       11.0288275841        2.1267436648  W2        13016           0.0000000000
     37697     12566  TIP3      H1            -18.8469405720       11.1077175841        2.4001336648  W2        13016           0.0000000000
     37698     12566  TIP3      H2            -19.7535505720       10.3417875841        1.4603036648  W2        13016           0.0000000000
     37699     12567  TIP3      OH2           -21.1118005720       16.4216775841        7.2041336648  W2        13017           0.0000000000
     37700     12567  TIP3      H1            -21.7590905720       15.9598475841        6.6712536648  W2        13017           0.0000000000
     37701     12567  TIP3      H2            -20.7573405720       15.7500075841        7.7867536648  W2        13017           0.0000000000
     37702     12568  TIP3      OH2           -20.2418805720       14.5023775841        9.0087536648  W2        13018           0.0000000000
     37703     12568  TIP3      H1            -20.5762005720       13.6221075841        9.1807736648  W2        13018           0.0000000000
     37704     12568  TIP3      H2            -20.0196405720       14.8478775841        9.8733136648  W2        13018           0.0000000000
     37705     12569  TIP3      OH2            -2.6934005720       15.3120175841       11.9892336648  W2        13019           0.0000000000
     37706     12569  TIP3      H1             -2.7147305720       15.4968575841       12.9281736648  W2        13019           0.0000000000
     37707     12569  TIP3      H2             -2.0027805720       15.8804175841       11.6483736648  W2        13019           0.0000000000
     37708     12570  TIP3      OH2            -3.1301105720       14.8791275841       14.9111436648  W2        13020           0.0000000000
     37709     12570  TIP3      H1             -3.6172405720       14.1435375841       14.5398836648  W2        13020           0.0000000000
     37710     12570  TIP3      H2             -2.5808405720       14.4855175841       15.5890836648  W2        13020           0.0000000000
     37711     12571  TIP3      OH2            -3.3784105720        8.9253075841        5.0634236648  W2        13022           0.0000000000
     37712     12571  TIP3      H1             -2.5282705720        9.3463975841        5.1905836648  W2        13022           0.0000000000
     37713     12571  TIP3      H2             -3.3729005720        8.1853175841        5.6705636648  W2        13022           0.0000000000
     37714     12572  TIP3      OH2            -2.9838505720        6.9790475841        6.8869936648  W2        13023           0.0000000000
     37715     12572  TIP3      H1             -3.7103905720        6.4993075841        7.2847536648  W2        13023           0.0000000000
     37716     12572  TIP3      H2             -2.4025205720        7.1845175841        7.6191536648  W2        13023           0.0000000000
     37717     12573  TIP3      OH2            -3.2247305720        9.7637975841       11.8347536648  W2        13024           0.0000000000
     37718     12573  TIP3      H1             -2.3913105720        9.3857975841       11.5541136648  W2        13024           0.0000000000
     37719     12573  TIP3      H2             -3.1127005720       10.7069175841       11.7156636648  W2        13024           0.0000000000
     37720     12574  TIP3      OH2            -4.7385005720       12.6415475841       14.1415936648  W2        13025           0.0000000000
     37721     12574  TIP3      H1             -5.3859705720       12.9666975841       14.7671136648  W2        13025           0.0000000000
     37722     12574  TIP3      H2             -5.2561005720       12.2013175841       13.4674236648  W2        13025           0.0000000000
     37723     12575  TIP3      OH2            -2.7155405720        6.8798975841        3.2781236648  W2        13026           0.0000000000
     37724     12575  TIP3      H1             -3.2374305720        7.2363075841        2.5592136648  W2        13026           0.0000000000
     37725     12575  TIP3      H2             -2.7486205720        7.5546775841        3.9562136648  W2        13026           0.0000000000
     37726     12576  TIP3      OH2            -4.3666405720        4.1194575841        1.8288336648  W2        13027           0.0000000000
     37727     12576  TIP3      H1             -4.2702005720        4.7861575841        1.1488036648  W2        13027           0.0000000000
     37728     12576  TIP3      H2             -4.5066805720        3.3040875841        1.3473836648  W2        13027           0.0000000000
     37729     12577  TIP3      OH2            -5.1971705720        5.4996975841        7.4498636648  W2        13028           0.0000000000
     37730     12577  TIP3      H1             -5.3472905720        4.5545575841        7.4296436648  W2        13028           0.0000000000
     37731     12577  TIP3      H2             -5.5507205720        5.7808375841        8.2937736648  W2        13028           0.0000000000
     37732     12578  TIP3      OH2           -20.1619305720        7.5779175841       11.4602436648  W2        13029           0.0000000000
     37733     12578  TIP3      H1            -19.9776405720        7.4960875841       10.5245336648  W2        13029           0.0000000000
     37734     12578  TIP3      H2            -19.3126405720        7.4536175841       11.8838836648  W2        13029           0.0000000000
     37735     12579  TIP3      OH2            -4.3408805720        7.4700275841       17.0886936648  W2        13030           0.0000000000
     37736     12579  TIP3      H1             -3.7581505720        6.7352575841       17.2804136648  W2        13030           0.0000000000
     37737     12579  TIP3      H2             -3.7769505720        8.2420575841       17.1352736648  W2        13030           0.0000000000
     37738     12580  TIP3      OH2            -2.8441705720        5.3726075841       17.7732336648  W2        13031           0.0000000000
     37739     12580  TIP3      H1             -3.7075005720        4.9938175841       17.6077036648  W2        13031           0.0000000000
     37740     12580  TIP3      H2             -2.2398005720        4.6340875841       17.6988136648  W2        13031           0.0000000000
     37741     12581  TIP3      OH2            -5.1192605720        1.5274375841        0.9463836648  W2        13032           0.0000000000
     37742     12581  TIP3      H1             -4.5086805720        1.1561175841        1.5832036648  W2        13032           0.0000000000
     37743     12581  TIP3      H2             -5.9561105720        1.1061275841        1.1423836648  W2        13032           0.0000000000
     37744     12582  TIP3      OH2            -5.4866905720        3.0822775841        5.9123736648  W2        13033           0.0000000000
     37745     12582  TIP3      H1             -5.2069805720        2.1753175841        6.0365436648  W2        13033           0.0000000000
     37746     12582  TIP3      H2             -4.7275205720        3.5164275841        5.5232936648  W2        13033           0.0000000000
     37747     12583  TIP3      OH2            -4.8748605720        3.6640175841       11.3482636648  W2        13034           0.0000000000
     37748     12583  TIP3      H1             -3.9420605720        3.8760075841       11.3138636648  W2        13034           0.0000000000
     37749     12583  TIP3      H2             -5.1101105720        3.7652275841       12.2705636648  W2        13034           0.0000000000
     37750     12584  TIP3      OH2            -4.8456705720        4.4005475841       14.1242036648  W2        13035           0.0000000000
     37751     12584  TIP3      H1             -5.6885405720        4.6685875841       14.4901836648  W2        13035           0.0000000000
     37752     12584  TIP3      H2             -4.4032405720        5.2227375841       13.9133136648  W2        13035           0.0000000000
     37753     12585  TIP3      OH2           -20.5644505720        2.8484175841       17.6011236648  W2        13036           0.0000000000
     37754     12585  TIP3      H1            -19.6449605720        2.7262475841       17.8374336648  W2        13036           0.0000000000
     37755     12585  TIP3      H2            -21.0140005720        2.0983875841       17.9904736648  W2        13036           0.0000000000
     37756     12586  TIP3      OH2            -4.8732105720        0.3452075841        5.9605736648  W2        13038           0.0000000000
     37757     12586  TIP3      H1             -4.6907105720       -0.1036424159        6.7860736648  W2        13038           0.0000000000
     37758     12586  TIP3      H2             -5.4729205720       -0.2393524159        5.4970336648  W2        13038           0.0000000000
     37759     12587  TIP3      OH2           -19.3432005720        1.1605775841       10.4924136648  W2        13039           0.0000000000
     37760     12587  TIP3      H1            -18.8980405720        0.3688275841       10.7943836648  W2        13039           0.0000000000
     37761     12587  TIP3      H2            -18.8769005720        1.8770975841       10.9229736648  W2        13039           0.0000000000
     37762     12588  TIP3      OH2           -21.0391705720        4.1598775841       11.5614336648  W2        13040           0.0000000000
     37763     12588  TIP3      H1            -20.5471905720        3.9389275841       10.7706336648  W2        13040           0.0000000000
     37764     12588  TIP3      H2            -20.6770805720        5.0002175841       11.8423836648  W2        13040           0.0000000000
     37765     12589  TIP3      OH2            -3.0065905720        0.4130175841        2.4886036648  W2        13042           0.0000000000
     37766     12589  TIP3      H1             -2.5943305720       -0.3084124159        2.0134036648  W2        13042           0.0000000000
     37767     12589  TIP3      H2             -2.3249405720        1.0824775841        2.5470336648  W2        13042           0.0000000000
     37768     12590  TIP3      OH2           -20.7255205720        0.4177875841        5.6156736648  W2        13043           0.0000000000
     37769     12590  TIP3      H1            -21.6506805720        0.6264475841        5.4862236648  W2        13043           0.0000000000
     37770     12590  TIP3      H2            -20.2715305720        0.9018675841        4.9259036648  W2        13043           0.0000000000
     37771     12591  TIP3      OH2            -5.9548005720       15.4019575841        7.5614136648  W2        13044           0.0000000000
     37772     12591  TIP3      H1             -5.3025105720       15.0541675841        6.9533236648  W2        13044           0.0000000000
     37773     12591  TIP3      H2             -5.4444205720       15.8902775841        8.2073836648  W2        13044           0.0000000000
     37774     12592  TIP3      OH2           -20.7619805720       -0.8443124159       13.9599236648  W2        13045           0.0000000000
     37775     12592  TIP3      H1            -21.4269305720       -1.0902824159       14.6030136648  W2        13045           0.0000000000
     37776     12592  TIP3      H2            -21.2048505720       -0.2222724159       13.3827236648  W2        13045           0.0000000000
     37777     12593  TIP3      OH2           -15.6157605720       13.3052175841       14.3629036648  W2        13047           0.0000000000
     37778     12593  TIP3      H1            -16.0406505720       14.1150675841       14.0803636648  W2        13047           0.0000000000
     37779     12593  TIP3      H2            -14.7114805720       13.3906275841       14.0608836648  W2        13047           0.0000000000
     37780     12594  TIP3      OH2           -11.3046205720       14.7042175841       17.3222736648  W2        13048           0.0000000000
     37781     12594  TIP3      H1            -11.1198705720       14.3708275841       18.2003036648  W2        13048           0.0000000000
     37782     12594  TIP3      H2            -10.4581705720       15.0140775841       17.0001936648  W2        13048           0.0000000000
     37783     12595  TIP3      OH2            -8.9595805720       15.9901075841       16.5664136648  W2        13049           0.0000000000
     37784     12595  TIP3      H1             -8.2826905720       15.3573375841       16.3263336648  W2        13049           0.0000000000
     37785     12595  TIP3      H2             -8.6377005720       16.3911575841       17.3737436648  W2        13049           0.0000000000
     37786     12596  TIP3      OH2            -4.0422005720       -1.4203424159       15.6459136648  W2        13050           0.0000000000
     37787     12596  TIP3      H1             -4.8548505720       -1.0953124159       15.2583836648  W2        13050           0.0000000000
     37788     12596  TIP3      H2             -3.8093505720       -2.1804924159       15.1128236648  W2        13050           0.0000000000
     37789     12597  TIP3      OH2           -18.2140905720       16.5616075841       14.4104336648  W2        13051           0.0000000000
     37790     12597  TIP3      H1            -18.9344505720       17.0017075841       13.9592036648  W2        13051           0.0000000000
     37791     12597  TIP3      H2            -18.5796905720       16.3110775841       15.2588336648  W2        13051           0.0000000000
     37792     12598  TIP3      OH2           -15.7468305720       16.1619975841       13.4401536648  W2        13052           0.0000000000
     37793     12598  TIP3      H1            -16.6116105720       16.2338475841       13.8441636648  W2        13052           0.0000000000
     37794     12598  TIP3      H2            -15.8019305720       16.7087275841       12.6564036648  W2        13052           0.0000000000
     37795     12599  TIP3      OH2           -11.0362705720       16.0498875841       12.6157536648  W2        13053           0.0000000000
     37796     12599  TIP3      H1            -11.4928705720       16.5788575841       11.9615936648  W2        13053           0.0000000000
     37797     12599  TIP3      H2            -10.8734705720       16.6530275841       13.3409836648  W2        13053           0.0000000000
     37798     12600  TIP3      OH2            -8.7086405720       14.9278475841       13.5607836648  W2        13054           0.0000000000
     37799     12600  TIP3      H1             -9.6132705720       15.0928675841       13.2949936648  W2        13054           0.0000000000
     37800     12600  TIP3      H2             -8.2797805720       15.7810675841       13.4951236648  W2        13054           0.0000000000
     37801     12601  TIP3      OH2            -6.1044505720       16.4977575841       13.8555636648  W2        13055           0.0000000000
     37802     12601  TIP3      H1             -6.2862505720       17.4136475841       13.6450536648  W2        13055           0.0000000000
     37803     12601  TIP3      H2             -5.9276705720       16.0874675841       13.0090236648  W2        13055           0.0000000000
     37804     12602  TIP3      OH2           -18.7992805720       15.1848575841       11.3206136648  W2        13056           0.0000000000
     37805     12602  TIP3      H1            -18.8176805720       14.7593675841       12.1778436648  W2        13056           0.0000000000
     37806     12602  TIP3      H2            -17.9944905720       14.8663575841       10.9118336648  W2        13056           0.0000000000
     37807     12603  TIP3      OH2           -16.6579705720       13.8947275841        9.9756036648  W2        13057           0.0000000000
     37808     12603  TIP3      H1            -16.8769005720       12.9784675841       10.1452036648  W2        13057           0.0000000000
     37809     12603  TIP3      H2            -15.8337505720       14.0347675841       10.4417436648  W2        13057           0.0000000000
     37810     12604  TIP3      OH2           -14.1207205720       14.3646575841       10.8244036648  W2        13058           0.0000000000
     37811     12604  TIP3      H1            -13.9081505720       13.4765575841       10.5374936648  W2        13058           0.0000000000
     37812     12604  TIP3      H2            -14.0562105720       14.3304275841       11.7788036648  W2        13058           0.0000000000
     37813     12605  TIP3      OH2           -10.6123505720        0.0287175841        9.9687336648  W2        13059           0.0000000000
     37814     12605  TIP3      H1            -11.2866705720       -0.6007224159       10.2243136648  W2        13059           0.0000000000
     37815     12605  TIP3      H2            -10.0484305720       -0.4553924159        9.3655236648  W2        13059           0.0000000000
     37816     12606  TIP3      OH2            -5.4696305720       -1.8638824159       10.0814436648  W2        13060           0.0000000000
     37817     12606  TIP3      H1             -4.8658705720       -1.3163424159        9.5795436648  W2        13060           0.0000000000
     37818     12606  TIP3      H2             -6.3394305720       -1.5448424159        9.8408536648  W2        13060           0.0000000000
     37819     12607  TIP3      OH2            -3.7425905720       -0.7250124159        8.4145336648  W2        13061           0.0000000000
     37820     12607  TIP3      H1             -3.1308405720       -1.2394424159        7.8878936648  W2        13061           0.0000000000
     37821     12607  TIP3      H2             -3.3602505720        0.1521975841        8.4379736648  W2        13061           0.0000000000
     37822     12608  TIP3      OH2           -18.2856005720       -1.3372524159        7.7907236648  W2        13062           0.0000000000
     37823     12608  TIP3      H1            -19.0626205720       -1.5717624159        7.2833136648  W2        13062           0.0000000000
     37824     12608  TIP3      H2            -17.7552405720       -2.1340424159        7.7995236648  W2        13062           0.0000000000
     37825     12609  TIP3      OH2           -19.4492605720       -1.5394424159        3.5943336648  W2        13063           0.0000000000
     37826     12609  TIP3      H1            -19.0101905720       -0.9283924159        3.0026836648  W2        13063           0.0000000000
     37827     12609  TIP3      H2            -20.0830205720       -1.0010324159        4.0683336648  W2        13063           0.0000000000
     37828     12610  TIP3      OH2           -13.7063405720       -1.4105424159        7.6040336648  W2        13064           0.0000000000
     37829     12610  TIP3      H1            -12.8320005720       -1.0221124159        7.5744636648  W2        13064           0.0000000000
     37830     12610  TIP3      H2            -13.8422605720       -1.6257624159        8.5267536648  W2        13064           0.0000000000
     37831     12611  TIP3      OH2            -8.1495005720       -1.3805624159        9.2532036648  W2        13065           0.0000000000
     37832     12611  TIP3      H1             -8.0733405720       -1.2854024159        8.3038036648  W2        13065           0.0000000000
     37833     12611  TIP3      H2             -8.4245805720       -2.2882724159        9.3821136648  W2        13065           0.0000000000
     37834     12612  TIP3      OH2            -6.7962405720       -1.3547824159        4.9457036648  W2        13066           0.0000000000
     37835     12612  TIP3      H1             -7.4991305720       -0.7398624159        4.7358436648  W2        13066           0.0000000000
     37836     12612  TIP3      H2             -7.2411005720       -2.1921124159        5.0767936648  W2        13066           0.0000000000
     37837     12613  TIP3      OH2           -19.5483105720       14.4087775841        4.4918436648  W2        13067           0.0000000000
     37838     12613  TIP3      H1            -20.2333205720       14.3706675841        3.8243536648  W2        13067           0.0000000000
     37839     12613  TIP3      H2            -19.5445905720       15.3215375841        4.7800536648  W2        13067           0.0000000000
     37840     12614  TIP3      OH2           -17.5883505720        0.3767075841        2.0367436648  W2        13068           0.0000000000
     37841     12614  TIP3      H1            -17.0970105720       -0.2530524159        1.5092936648  W2        13068           0.0000000000
     37842     12614  TIP3      H2            -16.9647205720        0.6726475841        2.6998636648  W2        13068           0.0000000000
     37843     12615  TIP3      OH2           -12.5623405720        0.6698575841        4.4937936648  W2        13069           0.0000000000
     37844     12615  TIP3      H1            -12.3842105720        0.0231775841        5.1766536648  W2        13069           0.0000000000
     37845     12615  TIP3      H2            -12.6157205720        1.5036275841        4.9609036648  W2        13069           0.0000000000
     37846     12616  TIP3      OH2           -10.6839605720       15.6182675841        2.8894636648  W2        13070           0.0000000000
     37847     12616  TIP3      H1             -9.8179405720       15.9850075841        2.7112836648  W2        13070           0.0000000000
     37848     12616  TIP3      H2            -10.9306805720       15.1790675841        2.0755436648  W2        13070           0.0000000000
     37849     12617  TIP3      OH2            -3.9750005720       15.1812975841        5.5685736648  W2        13071           0.0000000000
     37850     12617  TIP3      H1             -4.1692905720       14.4335075841        5.0035336648  W2        13071           0.0000000000
     37851     12617  TIP3      H2             -4.0139905720       15.9393075841        4.9853636648  W2        13071           0.0000000000
     37852     12618  TIP3      OH2           -18.3278005720       -0.8230624159       17.3083436648  W2        13072           0.0000000000
     37853     12618  TIP3      H1            -18.6939805720       -1.5888024159       17.7508136648  W2        13072           0.0000000000
     37854     12618  TIP3      H2            -17.4149505720       -0.7940424159       17.5948536648  W2        13072           0.0000000000
     37855     12619  TIP3      OH2           -17.7301905720       15.3288575841        1.5170536648  W2        13074           0.0000000000
     37856     12619  TIP3      H1            -17.9977305720       15.6151475841        2.3903636648  W2        13074           0.0000000000
     37857     12619  TIP3      H2            -16.9589305720       14.7827775841        1.6693036648  W2        13074           0.0000000000
     37858     12620  TIP3      OH2            -4.7573805720       13.9325375841       17.7187536648  W2        13076           0.0000000000
     37859     12620  TIP3      H1             -5.5391905720       13.7463375841       17.1988136648  W2        13076           0.0000000000
     37860     12620  TIP3      H2             -4.8293905720       14.8619675841       17.9360036648  W2        13076           0.0000000000
     37861     12621  TIP3      OH2             9.6486594280        7.8189775841        7.7494736648  W2        13077           0.0000000000
     37862     12621  TIP3      H1              9.7377694280        8.7627975841        7.6171836648  W2        13077           0.0000000000
     37863     12621  TIP3      H2              9.0104194280        7.5436175841        7.0914136648  W2        13077           0.0000000000
     37864     12622  TIP3      OH2             8.5817894280        7.0740475841       11.1682936648  W2        13078           0.0000000000
     37865     12622  TIP3      H1              8.5435394280        6.4276775841       11.8732536648  W2        13078           0.0000000000
     37866     12622  TIP3      H2              8.2594394280        6.6074875841       10.3971636648  W2        13078           0.0000000000
     37867     12623  TIP3      OH2             0.9502894280        6.6882575841       12.7612836648  W2        13079           0.0000000000
     37868     12623  TIP3      H1              0.9914994280        6.0625875841       13.4845236648  W2        13079           0.0000000000
     37869     12623  TIP3      H2              1.6530594280        7.3121175841       12.9433236648  W2        13079           0.0000000000
     37870     12624  TIP3      OH2            12.2878094280       10.0130875841        9.4698036648  W2        13080           0.0000000000
     37871     12624  TIP3      H1             11.8470794280        9.2926875841        9.9203636648  W2        13080           0.0000000000
     37872     12624  TIP3      H2             12.2747794280       10.7338075841       10.0995736648  W2        13080           0.0000000000
     37873     12625  TIP3      OH2             1.8735994280       11.1381475841       11.2961936648  W2        13081           0.0000000000
     37874     12625  TIP3      H1              1.5041194280       10.3361975841       10.9266236648  W2        13081           0.0000000000
     37875     12625  TIP3      H2              2.8147094280       10.9696375841       11.3425336648  W2        13081           0.0000000000
     37876     12626  TIP3      OH2            -1.5163505720        4.7984075841        6.6890736648  W2        13082           0.0000000000
     37877     12626  TIP3      H1             -1.9640105720        5.6442775841        6.6707236648  W2        13082           0.0000000000
     37878     12626  TIP3      H2             -2.0772305720        4.2188275841        6.1735836648  W2        13082           0.0000000000
     37879     12627  TIP3      OH2            -0.8057405720        6.9603675841        8.8148736648  W2        13083           0.0000000000
     37880     12627  TIP3      H1             -0.5923905720        6.1905275841        9.3421736648  W2        13083           0.0000000000
     37881     12627  TIP3      H2             -0.0679805720        7.0500375841        8.2116336648  W2        13083           0.0000000000
     37882     12628  TIP3      OH2             9.3993594280       15.1172575841        9.6818436648  W2        13084           0.0000000000
     37883     12628  TIP3      H1             10.0189994280       14.4407275841        9.4087636648  W2        13084           0.0000000000
     37884     12628  TIP3      H2              9.1910994280       14.8993375841       10.5903336648  W2        13084           0.0000000000
     37885     12629  TIP3      OH2             6.9712294280        9.5061875841       11.5743936648  W2        13085           0.0000000000
     37886     12629  TIP3      H1              7.2750194280        8.8203275841       10.9798036648  W2        13085           0.0000000000
     37887     12629  TIP3      H2              7.6926294280        9.6250575841       12.1921936648  W2        13085           0.0000000000
     37888     12630  TIP3      OH2            15.6342094280        1.1077175841       12.4350136648  W2        13086           0.0000000000
     37889     12630  TIP3      H1             15.6834294280        1.7178375841       13.1709236648  W2        13086           0.0000000000
     37890     12630  TIP3      H2             16.0597194280        1.5688075841       11.7121236648  W2        13086           0.0000000000
     37891     12631  TIP3      OH2            10.1119294280        3.9004275841       11.9018736648  W2        13087           0.0000000000
     37892     12631  TIP3      H1             10.2545194280        2.9541275841       11.9220336648  W2        13087           0.0000000000
     37893     12631  TIP3      H2             10.0058294280        4.1074075841       10.9733636648  W2        13087           0.0000000000
     37894     12632  TIP3      OH2             3.2667594280        2.0020675841        9.1743536648  W2        13088           0.0000000000
     37895     12632  TIP3      H1              3.3098694280        2.8619175841        8.7559836648  W2        13088           0.0000000000
     37896     12632  TIP3      H2              2.8091694280        1.4495375841        8.5406736648  W2        13088           0.0000000000
     37897     12633  TIP3      OH2            10.9890294280        2.1326275841        7.5751836648  W2        13089           0.0000000000
     37898     12633  TIP3      H1             11.6354594280        1.8039475841        8.1999436648  W2        13089           0.0000000000
     37899     12633  TIP3      H2             11.4989694280        2.6505275841        6.9523236648  W2        13089           0.0000000000
     37900     12634  TIP3      OH2            -0.1130905720        4.3986475841        9.9364936648  W2        13090           0.0000000000
     37901     12634  TIP3      H1              0.5405694280        3.8488175841       10.3685036648  W2        13090           0.0000000000
     37902     12634  TIP3      H2             -0.0891605720        4.1245475841        9.0196936648  W2        13090           0.0000000000
     37903     12635  TIP3      OH2             5.0433594280        5.9487775841        9.1516436648  W2        13091           0.0000000000
     37904     12635  TIP3      H1              5.6594594280        5.4223175841        9.6610436648  W2        13091           0.0000000000
     37905     12635  TIP3      H2              4.4572394280        5.3086475841        8.7480036648  W2        13091           0.0000000000
     37906     12636  TIP3      OH2            16.0256694280        2.5856375841       14.6709936648  W2        13092           0.0000000000
     37907     12636  TIP3      H1             15.3371294280        3.2437075841       14.5756536648  W2        13092           0.0000000000
     37908     12636  TIP3      H2             16.0411294280        2.3884275841       15.6075336648  W2        13092           0.0000000000
     37909     12637  TIP3      OH2             2.0769494280        0.9199075841       13.2484336648  W2        13093           0.0000000000
     37910     12637  TIP3      H1              1.8581194280        1.4499675841       12.4820336648  W2        13093           0.0000000000
     37911     12637  TIP3      H2              1.4090394280        1.1464575841       13.8955736648  W2        13093           0.0000000000
     37912     12638  TIP3      OH2             9.4459294280       10.4200175841        6.7923436648  W2        13094           0.0000000000
     37913     12638  TIP3      H1              9.1504394280       10.0972475841        5.9410336648  W2        13094           0.0000000000
     37914     12638  TIP3      H2              9.1217094280       11.3196875841        6.8336036648  W2        13094           0.0000000000
     37915     12639  TIP3      OH2             4.6460894280        8.5954775841       13.5358036648  W2        13095           0.0000000000
     37916     12639  TIP3      H1              3.9059994280        9.1936275841       13.6393236648  W2        13095           0.0000000000
     37917     12639  TIP3      H2              5.3600394280        9.1494375841       13.2201636648  W2        13095           0.0000000000
     37918     12640  TIP3      OH2            12.7528694280        1.4235575841        9.5557736648  W2        13096           0.0000000000
     37919     12640  TIP3      H1             12.5376694280        0.6578975841       10.0883736648  W2        13096           0.0000000000
     37920     12640  TIP3      H2             13.4086094280        1.8960175841       10.0686236648  W2        13096           0.0000000000
     37921     12641  TIP3      OH2             1.6706794280        2.8120875841       11.2006536648  W2        13097           0.0000000000
     37922     12641  TIP3      H1              2.2843094280        3.4448475841       11.5738936648  W2        13097           0.0000000000
     37923     12641  TIP3      H2              2.1827494280        2.3395875841       10.5443436648  W2        13097           0.0000000000
     37924     12642  TIP3      OH2             3.0535194280       10.5597775841       14.3229536648  W2        13098           0.0000000000
     37925     12642  TIP3      H1              3.0482794280       11.4391275841       13.9448836648  W2        13098           0.0000000000
     37926     12642  TIP3      H2              2.1999294280       10.4761875841       14.7479436648  W2        13098           0.0000000000
     37927     12643  TIP3      OH2            -0.8253905720       10.2305675841        5.1048836648  W2        13099           0.0000000000
     37928     12643  TIP3      H1             -1.0973005720       10.4596675841        4.2161736648  W2        13099           0.0000000000
     37929     12643  TIP3      H2             -0.7798205720       11.0684475841        5.5654136648  W2        13099           0.0000000000
     37930     12644  TIP3      OH2            12.7995794280       11.8521575841       11.8177336648  W2        13100           0.0000000000
     37931     12644  TIP3      H1             11.8579494280       11.9105475841       11.9794236648  W2        13100           0.0000000000
     37932     12644  TIP3      H2             13.0761894280       12.7582075841       11.6807036648  W2        13100           0.0000000000
     37933     12645  TIP3      OH2            13.1002794280        0.1386875841       13.2351236648  W2        13101           0.0000000000
     37934     12645  TIP3      H1             12.3641994280        0.7493975841       13.1972536648  W2        13101           0.0000000000
     37935     12645  TIP3      H2             13.7836794280        0.5535875841       12.7087636648  W2        13101           0.0000000000
     37936     12646  TIP3      OH2             6.1034194280       -1.7745824159       10.7009236648  W2        13102           0.0000000000
     37937     12646  TIP3      H1              5.9858394280       -2.7229824159       10.6467536648  W2        13102           0.0000000000
     37938     12646  TIP3      H2              5.2484294280       -1.4419724159       10.9740336648  W2        13102           0.0000000000
     37939     12647  TIP3      OH2            11.0516994280       13.6335075841        8.4428936648  W2        13103           0.0000000000
     37940     12647  TIP3      H1             11.4769294280       12.9262975841        7.9578536648  W2        13103           0.0000000000
     37941     12647  TIP3      H2             11.3686994280       14.4347775841        8.0261136648  W2        13103           0.0000000000
     37942     12648  TIP3      OH2            12.2113494280       11.5343575841        6.9515536648  W2        13104           0.0000000000
     37943     12648  TIP3      H1             11.9538294280       10.8443675841        6.3401436648  W2        13104           0.0000000000
     37944     12648  TIP3      H2             12.2824294280       11.0914775841        7.7971436648  W2        13104           0.0000000000
     37945     12649  TIP3      OH2            13.8973694280       10.1010275841       15.4289036648  W2        13105           0.0000000000
     37946     12649  TIP3      H1             14.0369994280        9.5092775841       14.6896036648  W2        13105           0.0000000000
     37947     12649  TIP3      H2             14.0646494280       10.9736175841       15.0727836648  W2        13105           0.0000000000
     37948     12650  TIP3      OH2             8.3699094280        7.0629775841        5.2015036648  W2        13106           0.0000000000
     37949     12650  TIP3      H1              7.6584594280        7.5979475841        4.8495536648  W2        13106           0.0000000000
     37950     12650  TIP3      H2              9.0608694280        7.1181875841        4.5413936648  W2        13106           0.0000000000
     37951     12651  TIP3      OH2             8.4238294280        5.5204075841        2.2400036648  W2        13107           0.0000000000
     37952     12651  TIP3      H1              9.1248194280        5.5430975841        2.8914036648  W2        13107           0.0000000000
     37953     12651  TIP3      H2              8.7261194280        4.8923775841        1.5839336648  W2        13107           0.0000000000
     37954     12652  TIP3      OH2            15.7392994280        6.4408275841       13.4949436648  W2        13108           0.0000000000
     37955     12652  TIP3      H1             15.0867094280        7.1353875841       13.5840336648  W2        13108           0.0000000000
     37956     12652  TIP3      H2             16.2043294280        6.6509175841       12.6851036648  W2        13108           0.0000000000
     37957     12653  TIP3      OH2            11.7756794280        7.2723075841        6.1530936648  W2        13109           0.0000000000
     37958     12653  TIP3      H1             11.0437794280        7.5006775841        6.7261536648  W2        13109           0.0000000000
     37959     12653  TIP3      H2             12.2228994280        6.5585775841        6.6078436648  W2        13109           0.0000000000
     37960     12654  TIP3      OH2            11.6730294280        5.4465675841       15.2207936648  W2        13110           0.0000000000
     37961     12654  TIP3      H1             11.7529394280        6.2100075841       15.7926436648  W2        13110           0.0000000000
     37962     12654  TIP3      H2             11.0717994280        5.7258075841       14.5303036648  W2        13110           0.0000000000
     37963     12655  TIP3      OH2             3.4210494280        7.9029275841        8.0355936648  W2        13111           0.0000000000
     37964     12655  TIP3      H1              3.0905694280        7.5322675841        7.2172936648  W2        13111           0.0000000000
     37965     12655  TIP3      H2              4.0094594280        7.2323275841        8.3824236648  W2        13111           0.0000000000
     37966     12656  TIP3      OH2             4.7877994280       11.3309875841       10.7168136648  W2        13112           0.0000000000
     37967     12656  TIP3      H1              4.6929294280       10.7522975841        9.9602736648  W2        13112           0.0000000000
     37968     12656  TIP3      H2              5.5171594280       10.9595575841       11.2130936648  W2        13112           0.0000000000
     37969     12657  TIP3      OH2             3.7875994280        6.6714875841       11.6690936648  W2        13113           0.0000000000
     37970     12657  TIP3      H1              4.3528494280        6.7929075841       10.9062136648  W2        13113           0.0000000000
     37971     12657  TIP3      H2              4.1064894280        7.3089875841       12.3079436648  W2        13113           0.0000000000
     37972     12658  TIP3      OH2            10.0968194280       12.1746775841       12.4031436648  W2        13114           0.0000000000
     37973     12658  TIP3      H1              9.8564794280       12.8369875841       13.0510636648  W2        13114           0.0000000000
     37974     12658  TIP3      H2              9.8986394280       11.3401975841       12.8281036648  W2        13114           0.0000000000
     37975     12659  TIP3      OH2             4.6676694280       11.0707575841       16.3862836648  W2        13115           0.0000000000
     37976     12659  TIP3      H1              4.3564194280       11.8530775841       16.8416036648  W2        13115           0.0000000000
     37977     12659  TIP3      H2              4.0176894280       10.9176675841       15.7004836648  W2        13115           0.0000000000
     37978     12660  TIP3      OH2            10.6466294280        6.4345975841        3.8382136648  W2        13116           0.0000000000
     37979     12660  TIP3      H1             11.2261794280        6.5846275841        4.5851036648  W2        13116           0.0000000000
     37980     12660  TIP3      H2             11.0606294280        6.9053375841        3.1148536648  W2        13116           0.0000000000
     37981     12661  TIP3      OH2             1.5876594280        7.2688675841       15.6148536648  W2        13117           0.0000000000
     37982     12661  TIP3      H1              1.6579794280        7.9195475841       16.3133536648  W2        13117           0.0000000000
     37983     12661  TIP3      H2              0.6968794280        7.3716175841       15.2799436648  W2        13117           0.0000000000
     37984     12662  TIP3      OH2             8.3731194280       13.1714475841        7.2735236648  W2        13118           0.0000000000
     37985     12662  TIP3      H1              8.8468794280       13.4670775841        8.0509436648  W2        13118           0.0000000000
     37986     12662  TIP3      H2              7.8100494280       13.9096075841        7.0404836648  W2        13118           0.0000000000
     37987     12663  TIP3      OH2             2.9072594280       13.1422575841       17.1496636648  W2        13119           0.0000000000
     37988     12663  TIP3      H1              2.9147894280       13.0062275841       16.2022136648  W2        13119           0.0000000000
     37989     12663  TIP3      H2              1.9912994280       13.0250675841       17.4016636648  W2        13119           0.0000000000
     37990     12664  TIP3      OH2            14.3454694280       -1.8153624159        3.6511836648  W2        13120           0.0000000000
     37991     12664  TIP3      H1             13.4455394280       -1.6764624159        3.9462436648  W2        13120           0.0000000000
     37992     12664  TIP3      H2             14.5973094280       -0.9839024159        3.2493536648  W2        13120           0.0000000000
     37993     12665  TIP3      OH2             2.4113194280        6.9723575841        5.6248736648  W2        13121           0.0000000000
     37994     12665  TIP3      H1              2.1194494280        7.7405275841        5.1340036648  W2        13121           0.0000000000
     37995     12665  TIP3      H2              1.7368394280        6.3129775841        5.4620136648  W2        13121           0.0000000000
     37996     12666  TIP3      OH2            15.5346094280       12.5508775841        2.0275736648  W2        13122           0.0000000000
     37997     12666  TIP3      H1             15.6079594280       13.4898975841        2.1981036648  W2        13122           0.0000000000
     37998     12666  TIP3      H2             16.4401194280       12.2457375841        1.9713036648  W2        13122           0.0000000000
     37999     12667  TIP3      OH2            -1.4956705720        9.3352775841       14.4398536648  W2        13123           0.0000000000
     38000     12667  TIP3      H1             -1.9968305720        9.3072175841       13.6248236648  W2        13123           0.0000000000
     38001     12667  TIP3      H2             -1.4903005720        8.4295975841       14.7495836648  W2        13123           0.0000000000
     38002     12668  TIP3      OH2            -1.7454005720       12.1156575841       11.3238736648  W2        13124           0.0000000000
     38003     12668  TIP3      H1             -0.7993405720       11.9713575841       11.3048236648  W2        13124           0.0000000000
     38004     12668  TIP3      H2             -1.8577705720       12.8999375841       11.8609936648  W2        13124           0.0000000000
     38005     12669  TIP3      OH2            16.4524494280       12.7816275841       17.0062436648  W2        13125           0.0000000000
     38006     12669  TIP3      H1             16.4031294280       11.8264375841       16.9690036648  W2        13125           0.0000000000
     38007     12669  TIP3      H2             15.6256794280       13.0491575841       17.4076236648  W2        13125           0.0000000000
     38008     12670  TIP3      OH2             7.4308494280       12.3555475841       15.8823836648  W2        13126           0.0000000000
     38009     12670  TIP3      H1              7.5183094280       13.1820075841       16.3572936648  W2        13126           0.0000000000
     38010     12670  TIP3      H2              6.5673594280       12.0259275841       16.1313136648  W2        13126           0.0000000000
     38011     12671  TIP3      OH2             7.8454294280       16.1279175841        5.6884436648  W2        13127           0.0000000000
     38012     12671  TIP3      H1              7.7700294280       16.0066375841        4.7419636648  W2        13127           0.0000000000
     38013     12671  TIP3      H2              7.8782994280       17.0771875841        5.8069036648  W2        13127           0.0000000000
     38014     12672  TIP3      OH2             1.4988094280       14.9166175841        7.4693436648  W2        13128           0.0000000000
     38015     12672  TIP3      H1              1.6508494280       14.5686575841        8.3479936648  W2        13128           0.0000000000
     38016     12672  TIP3      H2              0.6478494280       14.5603475841        7.2140636648  W2        13128           0.0000000000
     38017     12673  TIP3      OH2            10.9470294280       15.2819375841        2.6906836648  W2        13129           0.0000000000
     38018     12673  TIP3      H1             11.3218694280       14.5375475841        2.2199436648  W2        13129           0.0000000000
     38019     12673  TIP3      H2             10.9513994280       15.0119975841        3.6090136648  W2        13129           0.0000000000
     38020     12674  TIP3      OH2            10.6158394280       15.2076475841        5.4399036648  W2        13130           0.0000000000
     38021     12674  TIP3      H1              9.6808194280       15.3078375841        5.6186036648  W2        13130           0.0000000000
     38022     12674  TIP3      H2             10.8960294280       14.4982475841        6.0182236648  W2        13130           0.0000000000
     38023     12675  TIP3      OH2            13.6044294280        4.2748775841       17.4864636648  W2        13131           0.0000000000
     38024     12675  TIP3      H1             13.1971094280        4.7554375841       16.7657936648  W2        13131           0.0000000000
     38025     12675  TIP3      H2             13.6449994280        3.3694775841       17.1785436648  W2        13131           0.0000000000
     38026     12676  TIP3      OH2             0.7533794280       10.6588175841       15.4831336648  W2        13132           0.0000000000
     38027     12676  TIP3      H1              0.9695094280       10.2973775841       16.3427136648  W2        13132           0.0000000000
     38028     12676  TIP3      H2             -0.1021505720       10.2841975841       15.2734836648  W2        13132           0.0000000000
     38029     12677  TIP3      OH2             3.3721794280       -0.8711324159       11.4785536648  W2        13133           0.0000000000
     38030     12677  TIP3      H1              2.5105494280       -0.9583124159       11.0708436648  W2        13133           0.0000000000
     38031     12677  TIP3      H2              3.3497494280       -0.0151224159       11.9063136648  W2        13133           0.0000000000
     38032     12678  TIP3      OH2             8.0349594280       -1.1490924159       14.8532536648  W2        13134           0.0000000000
     38033     12678  TIP3      H1              8.4552694280       -1.5643824159       15.6063136648  W2        13134           0.0000000000
     38034     12678  TIP3      H2              7.1019194280       -1.3277624159       14.9704536648  W2        13134           0.0000000000
     38035     12679  TIP3      OH2            11.3614494280        2.6064275841       15.7067036648  W2        13135           0.0000000000
     38036     12679  TIP3      H1             10.8473994280        2.4806475841       16.5043036648  W2        13135           0.0000000000
     38037     12679  TIP3      H2             11.2059194280        3.5187375841       15.4623236648  W2        13135           0.0000000000
     38038     12680  TIP3      OH2            12.1239394280        7.4674275841        1.4680036648  W2        13136           0.0000000000
     38039     12680  TIP3      H1             12.1660194280        7.2448175841        0.5380036648  W2        13136           0.0000000000
     38040     12680  TIP3      H2             12.9731494280        7.8661375841        1.6579936648  W2        13136           0.0000000000
     38041     12681  TIP3      OH2             7.6966894280        1.3432475841        2.1383336648  W2        13137           0.0000000000
     38042     12681  TIP3      H1              7.4431694280        1.3624075841        3.0611436648  W2        13137           0.0000000000
     38043     12681  TIP3      H2              7.4398994280        0.4717875841        1.8369536648  W2        13137           0.0000000000
     38044     12682  TIP3      OH2             3.4631894280        4.0943175841       12.5735736648  W2        13138           0.0000000000
     38045     12682  TIP3      H1              2.8213994280        4.0540475841       13.2825836648  W2        13138           0.0000000000
     38046     12682  TIP3      H2              3.5003894280        5.0207875841       12.3358736648  W2        13138           0.0000000000
     38047     12683  TIP3      OH2             3.4600994280        4.3153275841        7.4855736648  W2        13139           0.0000000000
     38048     12683  TIP3      H1              2.5673894280        3.9749375841        7.4269536648  W2        13139           0.0000000000
     38049     12683  TIP3      H2              3.9107594280        3.9384175841        6.7298936648  W2        13139           0.0000000000
     38050     12684  TIP3      OH2             8.9956494280        4.7313575841        6.3026536648  W2        13140           0.0000000000
     38051     12684  TIP3      H1              8.5866794280        5.5462175841        6.0111336648  W2        13140           0.0000000000
     38052     12684  TIP3      H2              9.7162694280        4.5913675841        5.6883636648  W2        13140           0.0000000000
     38053     12685  TIP3      OH2             8.0978094280        4.9069975841       17.7907236648  W2        13141           0.0000000000
     38054     12685  TIP3      H1              7.5351894280        4.2021575841       18.1115036648  W2        13141           0.0000000000
     38055     12685  TIP3      H2              8.9241494280        4.7861875841       18.2584836648  W2        13141           0.0000000000
     38056     12686  TIP3      OH2            10.0004194280        4.1773975841        9.1166236648  W2        13142           0.0000000000
     38057     12686  TIP3      H1              9.8048694280        4.7830775841        8.4016836648  W2        13142           0.0000000000
     38058     12686  TIP3      H2             10.1816794280        3.3439175841        8.6822536648  W2        13142           0.0000000000
     38059     12687  TIP3      OH2             1.2132394280        4.4146675841       14.4407736648  W2        13143           0.0000000000
     38060     12687  TIP3      H1              1.1751794280        4.8148275841       15.3094836648  W2        13143           0.0000000000
     38061     12687  TIP3      H2              0.7223494280        3.5979075841       14.5310636648  W2        13143           0.0000000000
     38062     12688  TIP3      OH2             4.5789794280        1.7888975841        1.2393736648  W2        13144           0.0000000000
     38063     12688  TIP3      H1              4.1480494280        1.3439075841        1.9691136648  W2        13144           0.0000000000
     38064     12688  TIP3      H2              3.8608494280        2.1605275841        0.7271236648  W2        13144           0.0000000000
     38065     12689  TIP3      OH2            -2.1786805720        1.5308475841        8.2912436648  W2        13145           0.0000000000
     38066     12689  TIP3      H1             -1.5479105720        1.5020575841        9.0106336648  W2        13145           0.0000000000
     38067     12689  TIP3      H2             -1.7292505720        1.1057175841        7.5608336648  W2        13145           0.0000000000
     38068     12690  TIP3      OH2            -0.9044705720        2.2770475841        3.7152836648  W2        13146           0.0000000000
     38069     12690  TIP3      H1             -0.4303005720        2.8680375841        3.1303736648  W2        13146           0.0000000000
     38070     12690  TIP3      H2             -1.6218305720        2.8073375841        4.0622936648  W2        13146           0.0000000000
     38071     12691  TIP3      OH2             9.2643394280        5.8155275841       13.7878636648  W2        13147           0.0000000000
     38072     12691  TIP3      H1              9.5878194280        5.1844975841       13.1449136648  W2        13147           0.0000000000
     38073     12691  TIP3      H2              8.8242694280        5.2807475841       14.4486036648  W2        13147           0.0000000000
     38074     12692  TIP3      OH2             6.0416294280        1.7430775841        8.5719836648  W2        13148           0.0000000000
     38075     12692  TIP3      H1              5.1307394280        1.7997575841        8.8605836648  W2        13148           0.0000000000
     38076     12692  TIP3      H2              6.5469194280        1.6826275841        9.3827036648  W2        13148           0.0000000000
     38077     12693  TIP3      OH2             0.8699694280        3.3717075841        7.3987436648  W2        13149           0.0000000000
     38078     12693  TIP3      H1             -0.0192305720        3.4712575841        7.0587036648  W2        13149           0.0000000000
     38079     12693  TIP3      H2              1.1664594280        2.5300075841        7.0525336648  W2        13149           0.0000000000
     38080     12694  TIP3      OH2             4.5231494280        3.3719675841        5.0552036648  W2        13150           0.0000000000
     38081     12694  TIP3      H1              5.4546994280        3.5009675841        5.2335136648  W2        13150           0.0000000000
     38082     12694  TIP3      H2              4.3081794280        4.0413975841        4.4056736648  W2        13150           0.0000000000
     38083     12695  TIP3      OH2            10.4468194280        0.9777075841       11.8361636648  W2        13151           0.0000000000
     38084     12695  TIP3      H1              9.7699794280        1.1090175841       12.5001336648  W2        13151           0.0000000000
     38085     12695  TIP3      H2              9.9613094280        0.8226575841       11.0259336648  W2        13151           0.0000000000
     38086     12696  TIP3      OH2             3.1971694280        4.5661875841        2.6218136648  W2        13152           0.0000000000
     38087     12696  TIP3      H1              2.6546794280        4.1865675841        1.9305736648  W2        13152           0.0000000000
     38088     12696  TIP3      H2              4.0306594280        4.7606575841        2.1932236648  W2        13152           0.0000000000
     38089     12697  TIP3      OH2             1.3323094280        9.1233775841       17.7209736648  W2        13154           0.0000000000
     38090     12697  TIP3      H1              2.0645494280        9.3779675841       18.2824236648  W2        13154           0.0000000000
     38091     12697  TIP3      H2              0.5521794280        9.3279175841       18.2365136648  W2        13154           0.0000000000
     38092     12698  TIP3      OH2             7.3615994280        4.5303775841       10.4589436648  W2        13155           0.0000000000
     38093     12698  TIP3      H1              7.9259394280        3.9840375841        9.9119036648  W2        13155           0.0000000000
     38094     12698  TIP3      H2              7.2139394280        4.0085675841       11.2477036648  W2        13155           0.0000000000
     38095     12699  TIP3      OH2             2.3635694280        0.6669875841        6.8774236648  W2        13156           0.0000000000
     38096     12699  TIP3      H1              2.0465194280       -0.2354824159        6.8419636648  W2        13156           0.0000000000
     38097     12699  TIP3      H2              3.1449794280        0.6687275841        6.3245836648  W2        13156           0.0000000000
     38098     12700  TIP3      OH2             5.9881894280        2.9189875841       12.8729836648  W2        13157           0.0000000000
     38099     12700  TIP3      H1              5.1527194280        3.3729375841       12.9832236648  W2        13157           0.0000000000
     38100     12700  TIP3      H2              6.5122494280        3.1948375841       13.6249736648  W2        13157           0.0000000000
     38101     12701  TIP3      OH2             6.5324494280        9.1317575841        4.5576236648  W2        13158           0.0000000000
     38102     12701  TIP3      H1              5.7875494280        8.6242875841        4.2354136648  W2        13158           0.0000000000
     38103     12701  TIP3      H2              6.3981694280        9.1805575841        5.5041036648  W2        13158           0.0000000000
     38104     12702  TIP3      OH2            13.6823394280        8.2645775841       13.3443836648  W2        13159           0.0000000000
     38105     12702  TIP3      H1             14.3242194280        8.7212075841       12.8006036648  W2        13159           0.0000000000
     38106     12702  TIP3      H2             12.8520294280        8.3778175841       12.8817936648  W2        13159           0.0000000000
     38107     12703  TIP3      OH2            10.4301294280        1.9457475841        2.7568836648  W2        13160           0.0000000000
     38108     12703  TIP3      H1              9.4915494280        2.0573075841        2.6057636648  W2        13160           0.0000000000
     38109     12703  TIP3      H2             10.7273394280        2.8024375841        3.0634536648  W2        13160           0.0000000000
     38110     12704  TIP3      OH2             8.0516594280        9.3160875841       15.7945336648  W2        13161           0.0000000000
     38111     12704  TIP3      H1              7.7062694280        8.9343275841       16.6014936648  W2        13161           0.0000000000
     38112     12704  TIP3      H2              7.8516694280       10.2494475841       15.8658236648  W2        13161           0.0000000000
     38113     12705  TIP3      OH2            11.1484794280        3.8130175841        4.4176236648  W2        13162           0.0000000000
     38114     12705  TIP3      H1             12.0403794280        3.6755175841        4.7367436648  W2        13162           0.0000000000
     38115     12705  TIP3      H2             11.2048394280        4.6036275841        3.8809736648  W2        13162           0.0000000000
     38116     12706  TIP3      OH2             1.6572794280        8.4267575841       10.3274136648  W2        13163           0.0000000000
     38117     12706  TIP3      H1              2.4019994280        8.4243275841        9.7260636648  W2        13163           0.0000000000
     38118     12706  TIP3      H2              1.7349394280        7.6031375841       10.8089236648  W2        13163           0.0000000000
     38119     12707  TIP3      OH2             8.6578594280       10.5901875841        3.5830836648  W2        13164           0.0000000000
     38120     12707  TIP3      H1              8.3626994280       11.4169775841        3.9645636648  W2        13164           0.0000000000
     38121     12707  TIP3      H2              7.9548594280        9.9708775841        3.7792236648  W2        13164           0.0000000000
     38122     12708  TIP3      OH2            -1.3347505720        6.8874475841       15.6422636648  W2        13165           0.0000000000
     38123     12708  TIP3      H1             -1.1118905720        6.4694075841       16.4740136648  W2        13165           0.0000000000
     38124     12708  TIP3      H2             -1.9367405720        6.2749475841       15.2195436648  W2        13165           0.0000000000
     38125     12709  TIP3      OH2            10.3020194280       11.7776375841       15.7450336648  W2        13167           0.0000000000
     38126     12709  TIP3      H1              9.4014494280       11.9608975841       15.4774236648  W2        13167           0.0000000000
     38127     12709  TIP3      H2             10.3361294280       12.0365675841       16.6659136648  W2        13167           0.0000000000
     38128     12710  TIP3      OH2            16.0333494280        4.0224275841        4.1122936648  W2        13168           0.0000000000
     38129     12710  TIP3      H1             15.4789794280        3.6262275841        3.4400436648  W2        13168           0.0000000000
     38130     12710  TIP3      H2             16.1337094280        4.9329475841        3.8346236648  W2        13168           0.0000000000
     38131     12711  TIP3      OH2            15.9965494280        9.8225975841       16.9494436648  W2        13169           0.0000000000
     38132     12711  TIP3      H1             15.1453994280       10.0609775841       16.5820836648  W2        13169           0.0000000000
     38133     12711  TIP3      H2             16.5868894280        9.8059175841       16.1961536648  W2        13169           0.0000000000
     38134     12712  TIP3      OH2            14.3285194280       12.8084675841        4.5775036648  W2        13170           0.0000000000
     38135     12712  TIP3      H1             13.9556294280       11.9828475841        4.8865636648  W2        13170           0.0000000000
     38136     12712  TIP3      H2             14.6058694280       12.6254075841        3.6798436648  W2        13170           0.0000000000
     38137     12713  TIP3      OH2            11.4889094280        7.6164175841       11.5986936648  W2        13171           0.0000000000
     38138     12713  TIP3      H1             10.5605994280        7.3846075841       11.5716236648  W2        13171           0.0000000000
     38139     12713  TIP3      H2             11.9400194280        6.8393975841       11.2685736648  W2        13171           0.0000000000
     38140     12714  TIP3      OH2             4.0322194280       11.9445775841        7.7315636648  W2        13172           0.0000000000
     38141     12714  TIP3      H1              4.5594394280       12.7180175841        7.5314436648  W2        13172           0.0000000000
     38142     12714  TIP3      H2              3.1520694280       12.1694975841        7.4299636648  W2        13172           0.0000000000
     38143     12715  TIP3      OH2            -0.2130105720        6.8069875841        2.3188036648  W2        13173           0.0000000000
     38144     12715  TIP3      H1              0.4029794280        7.4337075841        2.6982836648  W2        13173           0.0000000000
     38145     12715  TIP3      H2             -1.0747505720        7.1229675841        2.5904536648  W2        13173           0.0000000000
     38146     12716  TIP3      OH2             5.4594494280        9.6075675841        7.3079936648  W2        13174           0.0000000000
     38147     12716  TIP3      H1              5.2184494280       10.5330075841        7.3495236648  W2        13174           0.0000000000
     38148     12716  TIP3      H2              4.7188094280        9.1486975841        7.7043836648  W2        13174           0.0000000000
     38149     12717  TIP3      OH2             5.9741094280       13.7569275841       13.6231036648  W2        13175           0.0000000000
     38150     12717  TIP3      H1              6.3365794280       14.6114875841       13.3895436648  W2        13175           0.0000000000
     38151     12717  TIP3      H2              6.5056294280       13.4650875841       14.3637336648  W2        13175           0.0000000000
     38152     12718  TIP3      OH2             4.1425294280       14.6293275841        6.8532136648  W2        13176           0.0000000000
     38153     12718  TIP3      H1              3.1925794280       14.7350675841        6.9045436648  W2        13176           0.0000000000
     38154     12718  TIP3      H2              4.4943394280       15.4500675841        7.1979636648  W2        13176           0.0000000000
     38155     12719  TIP3      OH2             9.5181894280        9.8559975841       13.3236636648  W2        13177           0.0000000000
     38156     12719  TIP3      H1              9.0923194280        9.6281675841       14.1500636648  W2        13177           0.0000000000
     38157     12719  TIP3      H2             10.0987694280        9.1171775841       13.1411936648  W2        13177           0.0000000000
     38158     12720  TIP3      OH2            11.7210794280       10.7850475841        2.3975636648  W2        13178           0.0000000000
     38159     12720  TIP3      H1             12.0743894280       10.4050275841        3.2019136648  W2        13178           0.0000000000
     38160     12720  TIP3      H2             10.7724294280       10.6915275841        2.4844936648  W2        13178           0.0000000000
     38161     12721  TIP3      OH2            12.1766094280       14.4079475841       15.7931436648  W2        13179           0.0000000000
     38162     12721  TIP3      H1             11.5749294280       13.8522375841       15.2977736648  W2        13179           0.0000000000
     38163     12721  TIP3      H2             12.4579794280       15.0749275841       15.1668836648  W2        13179           0.0000000000
     38164     12722  TIP3      OH2            16.2245194280       15.2642975841        2.5985836648  W2        13180           0.0000000000
     38165     12722  TIP3      H1             16.9683094280       15.8503475841        2.4587436648  W2        13180           0.0000000000
     38166     12722  TIP3      H2             15.5303294280       15.8328775841        2.9318236648  W2        13180           0.0000000000
     38167     12723  TIP3      OH2             0.2991994280        1.6407175841       15.2004036648  W2        13181           0.0000000000
     38168     12723  TIP3      H1             -0.5935705720        1.9792575841       15.1328036648  W2        13181           0.0000000000
     38169     12723  TIP3      H2              0.2004794280        0.7853275841       15.6184836648  W2        13181           0.0000000000
     38170     12724  TIP3      OH2            12.5870094280        9.4572475841        4.6243536648  W2        13182           0.0000000000
     38171     12724  TIP3      H1             12.3097694280        8.7291775841        5.1804636648  W2        13182           0.0000000000
     38172     12724  TIP3      H2             13.5143094280        9.5764475841        4.8296136648  W2        13182           0.0000000000
     38173     12725  TIP3      OH2            -0.0496005720       13.4451575841       13.6353436648  W2        13183           0.0000000000
     38174     12725  TIP3      H1              0.1674294280       12.5133975841       13.6043136648  W2        13183           0.0000000000
     38175     12725  TIP3      H2              0.1967494280       13.7196575841       14.5186236648  W2        13183           0.0000000000
     38176     12726  TIP3      OH2             5.8118594280       11.8966575841        0.8445636648  W2        13184           0.0000000000
     38177     12726  TIP3      H1              6.0508394280       11.1484675841        0.2974536648  W2        13184           0.0000000000
     38178     12726  TIP3      H2              5.5429894280       11.5088275841        1.6773436648  W2        13184           0.0000000000
     38179     12727  TIP3      OH2             4.7489194280       11.4670375841        3.3008236648  W2        13185           0.0000000000
     38180     12727  TIP3      H1              4.8957194280       10.9470175841        4.0909136648  W2        13185           0.0000000000
     38181     12727  TIP3      H2              4.7460894280       12.3737975841        3.6074136648  W2        13185           0.0000000000
     38182     12728  TIP3      OH2             1.2020294280        8.7193675841        3.8113636648  W2        13186           0.0000000000
     38183     12728  TIP3      H1              0.5159594280        9.0716175841        4.3783336648  W2        13186           0.0000000000
     38184     12728  TIP3      H2              1.7248194280        9.4823275841        3.5647936648  W2        13186           0.0000000000
     38185     12729  TIP3      OH2             9.0335394280        1.3817475841       14.0902636648  W2        13187           0.0000000000
     38186     12729  TIP3      H1              9.7323294280        1.4556175841       14.7402336648  W2        13187           0.0000000000
     38187     12729  TIP3      H2              8.6526794280        0.5172475841       14.2445536648  W2        13187           0.0000000000
     38188     12730  TIP3      OH2             9.8180294280        1.0339175841        5.1874936648  W2        13188           0.0000000000
     38189     12730  TIP3      H1             10.0378594280        1.5054575841        4.3840336648  W2        13188           0.0000000000
     38190     12730  TIP3      H2             10.3764294280        1.4281775841        5.8575536648  W2        13188           0.0000000000
     38191     12731  TIP3      OH2             7.4866394280       13.1643975841        4.0502436648  W2        13189           0.0000000000
     38192     12731  TIP3      H1              6.6702494280       13.6613675841        4.1026736648  W2        13189           0.0000000000
     38193     12731  TIP3      H2              8.0162694280       13.6397475841        3.4101236648  W2        13189           0.0000000000
     38194     12732  TIP3      OH2             7.0180194280        2.7617975841        6.0223336648  W2        13190           0.0000000000
     38195     12732  TIP3      H1              7.8302794280        3.2661175841        6.0685036648  W2        13190           0.0000000000
     38196     12732  TIP3      H2              6.7733194280        2.6167675841        6.9362936648  W2        13190           0.0000000000
     38197     12733  TIP3      OH2             7.5536594280        3.7480675841       15.2069936648  W2        13191           0.0000000000
     38198     12733  TIP3      H1              7.6726894280        4.3216075841       15.9640336648  W2        13191           0.0000000000
     38199     12733  TIP3      H2              8.2091194280        3.0600075841       15.3217736648  W2        13191           0.0000000000
     38200     12734  TIP3      OH2             7.9016894280       -0.1569024159        6.9604436648  W2        13192           0.0000000000
     38201     12734  TIP3      H1              7.5550394280        0.4601575841        7.6048736648  W2        13192           0.0000000000
     38202     12734  TIP3      H2              8.5603794280        0.3436675841        6.4789936648  W2        13192           0.0000000000
     38203     12735  TIP3      OH2             4.8249494280       14.2081175841        4.0319336648  W2        13193           0.0000000000
     38204     12735  TIP3      H1              4.9858194280       15.0078675841        3.5311936648  W2        13193           0.0000000000
     38205     12735  TIP3      H2              4.6277294280       14.5147175841        4.9169936648  W2        13193           0.0000000000
     38206     12736  TIP3      OH2             3.5593894280        0.9060375841        3.6476936648  W2        13194           0.0000000000
     38207     12736  TIP3      H1              3.4758694280        1.7943475841        3.9943336648  W2        13194           0.0000000000
     38208     12736  TIP3      H2              4.4494194280        0.6407075841        3.8793736648  W2        13194           0.0000000000
     38209     12737  TIP3      OH2            13.7582394280        1.6550975841       16.0419636648  W2        13195           0.0000000000
     38210     12737  TIP3      H1             12.8418194280        1.9172675841       15.9543336648  W2        13195           0.0000000000
     38211     12737  TIP3      H2             14.0937394280        1.6519975841       15.1454936648  W2        13195           0.0000000000
     38212     12738  TIP3      OH2            12.3603394280        5.4051975841       10.1376936648  W2        13196           0.0000000000
     38213     12738  TIP3      H1             11.5627794280        4.9902175841        9.8091936648  W2        13196           0.0000000000
     38214     12738  TIP3      H2             12.8054494280        4.7145675841       10.6287436648  W2        13196           0.0000000000
     38215     12739  TIP3      OH2             1.8179194280       11.3332575841        2.7081436648  W2        13197           0.0000000000
     38216     12739  TIP3      H1              2.4100694280       12.0327375841        2.9843836648  W2        13197           0.0000000000
     38217     12739  TIP3      H2              2.2772194280       10.9002075841        1.9886036648  W2        13197           0.0000000000
     38218     12740  TIP3      OH2             0.1338394280        3.9975575841        1.8240836648  W2        13198           0.0000000000
     38219     12740  TIP3      H1              0.0890994280        4.9368675841        2.0027836648  W2        13198           0.0000000000
     38220     12740  TIP3      H2             -0.7538405720        3.7620475841        1.5542936648  W2        13198           0.0000000000
     38221     12741  TIP3      OH2            13.4467994280       14.6614475841       11.7600436648  W2        13199           0.0000000000
     38222     12741  TIP3      H1             13.2912294280       15.3398875841       11.1029736648  W2        13199           0.0000000000
     38223     12741  TIP3      H2             14.3794394280       14.7333775841       11.9631036648  W2        13199           0.0000000000
     38224     12742  TIP3      OH2             0.9420394280       -1.2207824159       10.4971836648  W2        13200           0.0000000000
     38225     12742  TIP3      H1              0.7130194280       -1.1615324159        9.5696836648  W2        13200           0.0000000000
     38226     12742  TIP3      H2              0.4993794280       -2.0122324159       10.8035936648  W2        13200           0.0000000000
     38227     12743  TIP3      OH2            -0.1276305720       12.7199275841        6.6577636648  W2        13201           0.0000000000
     38228     12743  TIP3      H1             -0.9597705720       13.1921975841        6.6849036648  W2        13201           0.0000000000
     38229     12743  TIP3      H2              0.4181994280       13.2296875841        6.0590736648  W2        13201           0.0000000000
     38230     12744  TIP3      OH2             7.8500394280       13.7597975841        0.9831636648  W2        13204           0.0000000000
     38231     12744  TIP3      H1              7.2061394280       13.1286575841        1.3045336648  W2        13204           0.0000000000
     38232     12744  TIP3      H2              8.6118694280       13.2285975841        0.7515136648  W2        13204           0.0000000000
     38233     12745  TIP3      OH2            12.4543294280       13.5767875841        1.2169636648  W2        13206           0.0000000000
     38234     12745  TIP3      H1             12.7373694280       12.7823075841        1.6696536648  W2        13206           0.0000000000
     38235     12745  TIP3      H2             13.1941194280       13.8098875841        0.6560736648  W2        13206           0.0000000000
     38236     12746  TIP3      OH2             3.4090594280        9.4862775841        1.0744536648  W2        13208           0.0000000000
     38237     12746  TIP3      H1              3.4734694280        8.6922375841        1.6050936648  W2        13208           0.0000000000
     38238     12746  TIP3      H2              4.0619794280        9.3675575841        0.3846536648  W2        13208           0.0000000000
     38239     12747  TIP3      OH2             8.7613994280       10.5334475841        0.8102536648  W2        13210           0.0000000000
     38240     12747  TIP3      H1              8.4928094280       10.7136575841        1.7111436648  W2        13210           0.0000000000
     38241     12747  TIP3      H2              8.5549594280        9.6080675841        0.6788336648  W2        13210           0.0000000000
     38242     12748  TIP3      OH2            11.4578194280        9.0282475841       15.7578636648  W2        13211           0.0000000000
     38243     12748  TIP3      H1             12.2032994280        9.6166175841       15.6382636648  W2        13211           0.0000000000
     38244     12748  TIP3      H2             10.7004994280        9.6102175841       15.8211736648  W2        13211           0.0000000000
     38245     12749  TIP3      OH2             4.5584394280        7.4588975841        3.3802536648  W2        13213           0.0000000000
     38246     12749  TIP3      H1              4.0986394280        6.9747275841        4.0661036648  W2        13213           0.0000000000
     38247     12749  TIP3      H2              4.8133094280        6.7904375841        2.7443036648  W2        13213           0.0000000000
     38248     12750  TIP3      OH2             3.8473694280        5.3516075841       15.7362136648  W2        13214           0.0000000000
     38249     12750  TIP3      H1              3.2289794280        6.0262675841       16.0166836648  W2        13214           0.0000000000
     38250     12750  TIP3      H2              4.1914894280        5.6729975841       14.9028336648  W2        13214           0.0000000000
     38251     12751  TIP3      OH2             5.6294794280        5.7020775841        1.6425736648  W2        13215           0.0000000000
     38252     12751  TIP3      H1              5.4489794280        5.5471975841        0.7154036648  W2        13215           0.0000000000
     38253     12751  TIP3      H2              6.5795294280        5.8099475841        1.6873636648  W2        13215           0.0000000000
     38254     12752  TIP3      OH2            15.0193094280        8.0564975841        1.0883836648  W2        13217           0.0000000000
     38255     12752  TIP3      H1             14.7457894280        7.6320475841        0.2752136648  W2        13217           0.0000000000
     38256     12752  TIP3      H2             15.0587194280        8.9879475841        0.8714236648  W2        13217           0.0000000000
     38257     12753  TIP3      OH2             4.1867394280        2.7066875841       16.8185236648  W2        13218           0.0000000000
     38258     12753  TIP3      H1              4.3368294280        1.9778175841       16.2164936648  W2        13218           0.0000000000
     38259     12753  TIP3      H2              4.1889794280        3.4838575841       16.2597436648  W2        13218           0.0000000000
     38260     12754  TIP3      OH2             4.5993094280        1.0762675841       14.3112636648  W2        13219           0.0000000000
     38261     12754  TIP3      H1              5.1350594280        1.5279375841       13.6591936648  W2        13219           0.0000000000
     38262     12754  TIP3      H2              3.7472694280        0.9682475841       13.8886736648  W2        13219           0.0000000000
     38263     12755  TIP3      OH2             6.1811494280        6.5158875841       14.5507836648  W2        13220           0.0000000000
     38264     12755  TIP3      H1              6.9316294280        6.3596375841       13.9775636648  W2        13220           0.0000000000
     38265     12755  TIP3      H2              5.8419794280        7.3675475841       14.2753336648  W2        13220           0.0000000000
     38266     12756  TIP3      OH2            11.9134894280        7.1195875841       17.6565836648  W2        13222           0.0000000000
     38267     12756  TIP3      H1             11.6319894280        7.8290475841       17.0789636648  W2        13222           0.0000000000
     38268     12756  TIP3      H2             12.8559194280        7.0468875841       17.5057036648  W2        13222           0.0000000000
     38269     12757  TIP3      OH2             5.4048594280       -1.4671624159       14.7426236648  W2        13224           0.0000000000
     38270     12757  TIP3      H1              5.3068194280       -0.5208424159       14.6372436648  W2        13224           0.0000000000
     38271     12757  TIP3      H2              4.6624794280       -1.8397824159       14.2669736648  W2        13224           0.0000000000
     38272     12758  TIP3      OH2             9.3845694280        1.9817275841       17.3818136648  W2        13226           0.0000000000
     38273     12758  TIP3      H1              8.4371094280        2.0136975841       17.5141436648  W2        13226           0.0000000000
     38274     12758  TIP3      H2              9.6972394280        1.3564375841       18.0356336648  W2        13226           0.0000000000
     38275     12759  TIP3      OH2             5.6266694280       -2.1734224159       17.4139036648  W2        13229           0.0000000000
     38276     12759  TIP3      H1              6.3385094280       -2.8132024159       17.3998136648  W2        13229           0.0000000000
     38277     12759  TIP3      H2              5.5257094280       -1.9065924159       16.5002136648  W2        13229           0.0000000000
     38278     12760  TIP3      OH2             5.5266494280       16.3924475841        2.6439336648  W2        13231           0.0000000000
     38279     12760  TIP3      H1              6.4597194280       16.5503175841        2.7877736648  W2        13231           0.0000000000
     38280     12760  TIP3      H2              5.2625294280       17.0677475841        2.0190836648  W2        13231           0.0000000000
     38281     12761  TIP3      OH2            -0.9048605720       11.0288275841        2.1267436648  W2        13232           0.0000000000
     38282     12761  TIP3      H1              0.0090594280       11.1077175841        2.4001336648  W2        13232           0.0000000000
     38283     12761  TIP3      H2             -0.8975505720       10.3417875841        1.4603036648  W2        13232           0.0000000000
     38284     12762  TIP3      OH2            -2.2558005720       16.4216775841        7.2041336648  W2        13233           0.0000000000
     38285     12762  TIP3      H1             -2.9030905720       15.9598475841        6.6712536648  W2        13233           0.0000000000
     38286     12762  TIP3      H2             -1.9013405720       15.7500075841        7.7867536648  W2        13233           0.0000000000
     38287     12763  TIP3      OH2            -1.3858805720       14.5023775841        9.0087536648  W2        13234           0.0000000000
     38288     12763  TIP3      H1             -1.7202005720       13.6221075841        9.1807736648  W2        13234           0.0000000000
     38289     12763  TIP3      H2             -1.1636405720       14.8478775841        9.8733136648  W2        13234           0.0000000000
     38290     12764  TIP3      OH2            16.1625994280       15.3120175841       11.9892336648  W2        13235           0.0000000000
     38291     12764  TIP3      H1             16.1412694280       15.4968575841       12.9281736648  W2        13235           0.0000000000
     38292     12764  TIP3      H2             16.8532194280       15.8804175841       11.6483736648  W2        13235           0.0000000000
     38293     12765  TIP3      OH2            15.7258894280       14.8791275841       14.9111436648  W2        13236           0.0000000000
     38294     12765  TIP3      H1             15.2387594280       14.1435375841       14.5398836648  W2        13236           0.0000000000
     38295     12765  TIP3      H2             16.2751594280       14.4855175841       15.5890836648  W2        13236           0.0000000000
     38296     12766  TIP3      OH2            15.4775894280        8.9253075841        5.0634236648  W2        13238           0.0000000000
     38297     12766  TIP3      H1             16.3277294280        9.3463975841        5.1905836648  W2        13238           0.0000000000
     38298     12766  TIP3      H2             15.4830994280        8.1853175841        5.6705636648  W2        13238           0.0000000000
     38299     12767  TIP3      OH2            15.8721494280        6.9790475841        6.8869936648  W2        13239           0.0000000000
     38300     12767  TIP3      H1             15.1456094280        6.4993075841        7.2847536648  W2        13239           0.0000000000
     38301     12767  TIP3      H2             16.4534794280        7.1845175841        7.6191536648  W2        13239           0.0000000000
     38302     12768  TIP3      OH2            15.6312694280        9.7637975841       11.8347536648  W2        13240           0.0000000000
     38303     12768  TIP3      H1             16.4646894280        9.3857975841       11.5541136648  W2        13240           0.0000000000
     38304     12768  TIP3      H2             15.7432994280       10.7069175841       11.7156636648  W2        13240           0.0000000000
     38305     12769  TIP3      OH2            14.1174994280       12.6415475841       14.1415936648  W2        13241           0.0000000000
     38306     12769  TIP3      H1             13.4700294280       12.9666975841       14.7671136648  W2        13241           0.0000000000
     38307     12769  TIP3      H2             13.5998994280       12.2013175841       13.4674236648  W2        13241           0.0000000000
     38308     12770  TIP3      OH2            16.1404594280        6.8798975841        3.2781236648  W2        13242           0.0000000000
     38309     12770  TIP3      H1             15.6185694280        7.2363075841        2.5592136648  W2        13242           0.0000000000
     38310     12770  TIP3      H2             16.1073794280        7.5546775841        3.9562136648  W2        13242           0.0000000000
     38311     12771  TIP3      OH2            14.4893594280        4.1194575841        1.8288336648  W2        13243           0.0000000000
     38312     12771  TIP3      H1             14.5857994280        4.7861575841        1.1488036648  W2        13243           0.0000000000
     38313     12771  TIP3      H2             14.3493194280        3.3040875841        1.3473836648  W2        13243           0.0000000000
     38314     12772  TIP3      OH2            13.6588294280        5.4996975841        7.4498636648  W2        13244           0.0000000000
     38315     12772  TIP3      H1             13.5087094280        4.5545575841        7.4296436648  W2        13244           0.0000000000
     38316     12772  TIP3      H2             13.3052794280        5.7808375841        8.2937736648  W2        13244           0.0000000000
     38317     12773  TIP3      OH2            -1.3059305720        7.5779175841       11.4602436648  W2        13245           0.0000000000
     38318     12773  TIP3      H1             -1.1216405720        7.4960875841       10.5245336648  W2        13245           0.0000000000
     38319     12773  TIP3      H2             -0.4566405720        7.4536175841       11.8838836648  W2        13245           0.0000000000
     38320     12774  TIP3      OH2            14.5151194280        7.4700275841       17.0886936648  W2        13246           0.0000000000
     38321     12774  TIP3      H1             15.0978494280        6.7352575841       17.2804136648  W2        13246           0.0000000000
     38322     12774  TIP3      H2             15.0790494280        8.2420575841       17.1352736648  W2        13246           0.0000000000
     38323     12775  TIP3      OH2            16.0118294280        5.3726075841       17.7732336648  W2        13247           0.0000000000
     38324     12775  TIP3      H1             15.1484994280        4.9938175841       17.6077036648  W2        13247           0.0000000000
     38325     12775  TIP3      H2             16.6161994280        4.6340875841       17.6988136648  W2        13247           0.0000000000
     38326     12776  TIP3      OH2            13.7367394280        1.5274375841        0.9463836648  W2        13248           0.0000000000
     38327     12776  TIP3      H1             14.3473194280        1.1561175841        1.5832036648  W2        13248           0.0000000000
     38328     12776  TIP3      H2             12.8998894280        1.1061275841        1.1423836648  W2        13248           0.0000000000
     38329     12777  TIP3      OH2            13.3693094280        3.0822775841        5.9123736648  W2        13249           0.0000000000
     38330     12777  TIP3      H1             13.6490194280        2.1753175841        6.0365436648  W2        13249           0.0000000000
     38331     12777  TIP3      H2             14.1284794280        3.5164275841        5.5232936648  W2        13249           0.0000000000
     38332     12778  TIP3      OH2            13.9811394280        3.6640175841       11.3482636648  W2        13250           0.0000000000
     38333     12778  TIP3      H1             14.9139394280        3.8760075841       11.3138636648  W2        13250           0.0000000000
     38334     12778  TIP3      H2             13.7458894280        3.7652275841       12.2705636648  W2        13250           0.0000000000
     38335     12779  TIP3      OH2            14.0103294280        4.4005475841       14.1242036648  W2        13251           0.0000000000
     38336     12779  TIP3      H1             13.1674594280        4.6685875841       14.4901836648  W2        13251           0.0000000000
     38337     12779  TIP3      H2             14.4527594280        5.2227375841       13.9133136648  W2        13251           0.0000000000
     38338     12780  TIP3      OH2            -1.7084505720        2.8484175841       17.6011236648  W2        13252           0.0000000000
     38339     12780  TIP3      H1             -0.7889605720        2.7262475841       17.8374336648  W2        13252           0.0000000000
     38340     12780  TIP3      H2             -2.1580005720        2.0983875841       17.9904736648  W2        13252           0.0000000000
     38341     12781  TIP3      OH2            13.9827894280        0.3452075841        5.9605736648  W2        13254           0.0000000000
     38342     12781  TIP3      H1             14.1652894280       -0.1036424159        6.7860736648  W2        13254           0.0000000000
     38343     12781  TIP3      H2             13.3830794280       -0.2393524159        5.4970336648  W2        13254           0.0000000000
     38344     12782  TIP3      OH2            -0.4872005720        1.1605775841       10.4924136648  W2        13255           0.0000000000
     38345     12782  TIP3      H1             -0.0420405720        0.3688275841       10.7943836648  W2        13255           0.0000000000
     38346     12782  TIP3      H2             -0.0209005720        1.8770975841       10.9229736648  W2        13255           0.0000000000
     38347     12783  TIP3      OH2            -2.1831705720        4.1598775841       11.5614336648  W2        13256           0.0000000000
     38348     12783  TIP3      H1             -1.6911905720        3.9389275841       10.7706336648  W2        13256           0.0000000000
     38349     12783  TIP3      H2             -1.8210805720        5.0002175841       11.8423836648  W2        13256           0.0000000000
     38350     12784  TIP3      OH2            15.8494094280        0.4130175841        2.4886036648  W2        13258           0.0000000000
     38351     12784  TIP3      H1             16.2616694280       -0.3084124159        2.0134036648  W2        13258           0.0000000000
     38352     12784  TIP3      H2             16.5310594280        1.0824775841        2.5470336648  W2        13258           0.0000000000
     38353     12785  TIP3      OH2            -1.8695205720        0.4177875841        5.6156736648  W2        13259           0.0000000000
     38354     12785  TIP3      H1             -2.7946805720        0.6264475841        5.4862236648  W2        13259           0.0000000000
     38355     12785  TIP3      H2             -1.4155305720        0.9018675841        4.9259036648  W2        13259           0.0000000000
     38356     12786  TIP3      OH2            12.9011994280       15.4019575841        7.5614136648  W2        13260           0.0000000000
     38357     12786  TIP3      H1             13.5534894280       15.0541675841        6.9533236648  W2        13260           0.0000000000
     38358     12786  TIP3      H2             13.4115794280       15.8902775841        8.2073836648  W2        13260           0.0000000000
     38359     12787  TIP3      OH2            -1.9059805720       -0.8443124159       13.9599236648  W2        13261           0.0000000000
     38360     12787  TIP3      H1             -2.5709305720       -1.0902824159       14.6030136648  W2        13261           0.0000000000
     38361     12787  TIP3      H2             -2.3488505720       -0.2222724159       13.3827236648  W2        13261           0.0000000000
     38362     12788  TIP3      OH2             3.2402394280       13.3052175841       14.3629036648  W2        13263           0.0000000000
     38363     12788  TIP3      H1              2.8153494280       14.1150675841       14.0803636648  W2        13263           0.0000000000
     38364     12788  TIP3      H2              4.1445194280       13.3906275841       14.0608836648  W2        13263           0.0000000000
     38365     12789  TIP3      OH2             7.5513794280       14.7042175841       17.3222736648  W2        13264           0.0000000000
     38366     12789  TIP3      H1              7.7361294280       14.3708275841       18.2003036648  W2        13264           0.0000000000
     38367     12789  TIP3      H2              8.3978294280       15.0140775841       17.0001936648  W2        13264           0.0000000000
     38368     12790  TIP3      OH2             9.8964194280       15.9901075841       16.5664136648  W2        13265           0.0000000000
     38369     12790  TIP3      H1             10.5733094280       15.3573375841       16.3263336648  W2        13265           0.0000000000
     38370     12790  TIP3      H2             10.2182994280       16.3911575841       17.3737436648  W2        13265           0.0000000000
     38371     12791  TIP3      OH2            14.8137994280       -1.4203424159       15.6459136648  W2        13266           0.0000000000
     38372     12791  TIP3      H1             14.0011494280       -1.0953124159       15.2583836648  W2        13266           0.0000000000
     38373     12791  TIP3      H2             15.0466494280       -2.1804924159       15.1128236648  W2        13266           0.0000000000
     38374     12792  TIP3      OH2             0.6419094280       16.5616075841       14.4104336648  W2        13267           0.0000000000
     38375     12792  TIP3      H1             -0.0784505720       17.0017075841       13.9592036648  W2        13267           0.0000000000
     38376     12792  TIP3      H2              0.2763094280       16.3110775841       15.2588336648  W2        13267           0.0000000000
     38377     12793  TIP3      OH2             3.1091694280       16.1619975841       13.4401536648  W2        13268           0.0000000000
     38378     12793  TIP3      H1              2.2443894280       16.2338475841       13.8441636648  W2        13268           0.0000000000
     38379     12793  TIP3      H2              3.0540694280       16.7087275841       12.6564036648  W2        13268           0.0000000000
     38380     12794  TIP3      OH2             7.8197294280       16.0498875841       12.6157536648  W2        13269           0.0000000000
     38381     12794  TIP3      H1              7.3631294280       16.5788575841       11.9615936648  W2        13269           0.0000000000
     38382     12794  TIP3      H2              7.9825294280       16.6530275841       13.3409836648  W2        13269           0.0000000000
     38383     12795  TIP3      OH2            10.1473594280       14.9278475841       13.5607836648  W2        13270           0.0000000000
     38384     12795  TIP3      H1              9.2427294280       15.0928675841       13.2949936648  W2        13270           0.0000000000
     38385     12795  TIP3      H2             10.5762194280       15.7810675841       13.4951236648  W2        13270           0.0000000000
     38386     12796  TIP3      OH2            12.7515494280       16.4977575841       13.8555636648  W2        13271           0.0000000000
     38387     12796  TIP3      H1             12.5697494280       17.4136475841       13.6450536648  W2        13271           0.0000000000
     38388     12796  TIP3      H2             12.9283294280       16.0874675841       13.0090236648  W2        13271           0.0000000000
     38389     12797  TIP3      OH2             0.0567194280       15.1848575841       11.3206136648  W2        13272           0.0000000000
     38390     12797  TIP3      H1              0.0383194280       14.7593675841       12.1778436648  W2        13272           0.0000000000
     38391     12797  TIP3      H2              0.8615094280       14.8663575841       10.9118336648  W2        13272           0.0000000000
     38392     12798  TIP3      OH2             2.1980294280       13.8947275841        9.9756036648  W2        13273           0.0000000000
     38393     12798  TIP3      H1              1.9790994280       12.9784675841       10.1452036648  W2        13273           0.0000000000
     38394     12798  TIP3      H2              3.0222494280       14.0347675841       10.4417436648  W2        13273           0.0000000000
     38395     12799  TIP3      OH2             4.7352794280       14.3646575841       10.8244036648  W2        13274           0.0000000000
     38396     12799  TIP3      H1              4.9478494280       13.4765575841       10.5374936648  W2        13274           0.0000000000
     38397     12799  TIP3      H2              4.7997894280       14.3304275841       11.7788036648  W2        13274           0.0000000000
     38398     12800  TIP3      OH2             8.2436494280        0.0287175841        9.9687336648  W2        13275           0.0000000000
     38399     12800  TIP3      H1              7.5693294280       -0.6007224159       10.2243136648  W2        13275           0.0000000000
     38400     12800  TIP3      H2              8.8075694280       -0.4553924159        9.3655236648  W2        13275           0.0000000000
     38401     12801  TIP3      OH2            13.3863694280       -1.8638824159       10.0814436648  W2        13276           0.0000000000
     38402     12801  TIP3      H1             13.9901294280       -1.3163424159        9.5795436648  W2        13276           0.0000000000
     38403     12801  TIP3      H2             12.5165694280       -1.5448424159        9.8408536648  W2        13276           0.0000000000
     38404     12802  TIP3      OH2            15.1134094280       -0.7250124159        8.4145336648  W2        13277           0.0000000000
     38405     12802  TIP3      H1             15.7251594280       -1.2394424159        7.8878936648  W2        13277           0.0000000000
     38406     12802  TIP3      H2             15.4957494280        0.1521975841        8.4379736648  W2        13277           0.0000000000
     38407     12803  TIP3      OH2             0.5703994280       -1.3372524159        7.7907236648  W2        13278           0.0000000000
     38408     12803  TIP3      H1             -0.2066205720       -1.5717624159        7.2833136648  W2        13278           0.0000000000
     38409     12803  TIP3      H2              1.1007594280       -2.1340424159        7.7995236648  W2        13278           0.0000000000
     38410     12804  TIP3      OH2            -0.5932605720       -1.5394424159        3.5943336648  W2        13279           0.0000000000
     38411     12804  TIP3      H1             -0.1541905720       -0.9283924159        3.0026836648  W2        13279           0.0000000000
     38412     12804  TIP3      H2             -1.2270205720       -1.0010324159        4.0683336648  W2        13279           0.0000000000
     38413     12805  TIP3      OH2             5.1496594280       -1.4105424159        7.6040336648  W2        13280           0.0000000000
     38414     12805  TIP3      H1              6.0239994280       -1.0221124159        7.5744636648  W2        13280           0.0000000000
     38415     12805  TIP3      H2              5.0137394280       -1.6257624159        8.5267536648  W2        13280           0.0000000000
     38416     12806  TIP3      OH2            10.7064994280       -1.3805624159        9.2532036648  W2        13281           0.0000000000
     38417     12806  TIP3      H1             10.7826594280       -1.2854024159        8.3038036648  W2        13281           0.0000000000
     38418     12806  TIP3      H2             10.4314194280       -2.2882724159        9.3821136648  W2        13281           0.0000000000
     38419     12807  TIP3      OH2            12.0597594280       -1.3547824159        4.9457036648  W2        13282           0.0000000000
     38420     12807  TIP3      H1             11.3568694280       -0.7398624159        4.7358436648  W2        13282           0.0000000000
     38421     12807  TIP3      H2             11.6148994280       -2.1921124159        5.0767936648  W2        13282           0.0000000000
     38422     12808  TIP3      OH2            -0.6923105720       14.4087775841        4.4918436648  W2        13283           0.0000000000
     38423     12808  TIP3      H1             -1.3773205720       14.3706675841        3.8243536648  W2        13283           0.0000000000
     38424     12808  TIP3      H2             -0.6885905720       15.3215375841        4.7800536648  W2        13283           0.0000000000
     38425     12809  TIP3      OH2             1.2676494280        0.3767075841        2.0367436648  W2        13284           0.0000000000
     38426     12809  TIP3      H1              1.7589894280       -0.2530524159        1.5092936648  W2        13284           0.0000000000
     38427     12809  TIP3      H2              1.8912794280        0.6726475841        2.6998636648  W2        13284           0.0000000000
     38428     12810  TIP3      OH2             6.2936594280        0.6698575841        4.4937936648  W2        13285           0.0000000000
     38429     12810  TIP3      H1              6.4717894280        0.0231775841        5.1766536648  W2        13285           0.0000000000
     38430     12810  TIP3      H2              6.2402794280        1.5036275841        4.9609036648  W2        13285           0.0000000000
     38431     12811  TIP3      OH2             8.1720394280       15.6182675841        2.8894636648  W2        13286           0.0000000000
     38432     12811  TIP3      H1              9.0380594280       15.9850075841        2.7112836648  W2        13286           0.0000000000
     38433     12811  TIP3      H2              7.9253194280       15.1790675841        2.0755436648  W2        13286           0.0000000000
     38434     12812  TIP3      OH2            14.8809994280       15.1812975841        5.5685736648  W2        13287           0.0000000000
     38435     12812  TIP3      H1             14.6867094280       14.4335075841        5.0035336648  W2        13287           0.0000000000
     38436     12812  TIP3      H2             14.8420094280       15.9393075841        4.9853636648  W2        13287           0.0000000000
     38437     12813  TIP3      OH2             0.5281994280       -0.8230624159       17.3083436648  W2        13288           0.0000000000
     38438     12813  TIP3      H1              0.1620194280       -1.5888024159       17.7508136648  W2        13288           0.0000000000
     38439     12813  TIP3      H2              1.4410494280       -0.7940424159       17.5948536648  W2        13288           0.0000000000
     38440     12814  TIP3      OH2             1.1258094280       15.3288575841        1.5170536648  W2        13290           0.0000000000
     38441     12814  TIP3      H1              0.8582694280       15.6151475841        2.3903636648  W2        13290           0.0000000000
     38442     12814  TIP3      H2              1.8970694280       14.7827775841        1.6693036648  W2        13290           0.0000000000
     38443     12815  TIP3      OH2            14.0986194280       13.9325375841       17.7187536648  W2        13292           0.0000000000
     38444     12815  TIP3      H1             13.3168094280       13.7463375841       17.1988136648  W2        13292           0.0000000000
     38445     12815  TIP3      H2             14.0266094280       14.8619675841       17.9360036648  W2        13292           0.0000000000
     38446     12816  TIP3      OH2            28.5046594280        7.8189775841        7.7494736648  W2        13293           0.0000000000
     38447     12816  TIP3      H1             28.5937694280        8.7627975841        7.6171836648  W2        13293           0.0000000000
     38448     12816  TIP3      H2             27.8664194280        7.5436175841        7.0914136648  W2        13293           0.0000000000
     38449     12817  TIP3      OH2            27.4377894280        7.0740475841       11.1682936648  W2        13294           0.0000000000
     38450     12817  TIP3      H1             27.3995394280        6.4276775841       11.8732536648  W2        13294           0.0000000000
     38451     12817  TIP3      H2             27.1154394280        6.6074875841       10.3971636648  W2        13294           0.0000000000
     38452     12818  TIP3      OH2            19.8062894280        6.6882575841       12.7612836648  W2        13295           0.0000000000
     38453     12818  TIP3      H1             19.8474994280        6.0625875841       13.4845236648  W2        13295           0.0000000000
     38454     12818  TIP3      H2             20.5090594280        7.3121175841       12.9433236648  W2        13295           0.0000000000
     38455     12819  TIP3      OH2            31.1438094280       10.0130875841        9.4698036648  W2        13296           0.0000000000
     38456     12819  TIP3      H1             30.7030794280        9.2926875841        9.9203636648  W2        13296           0.0000000000
     38457     12819  TIP3      H2             31.1307794280       10.7338075841       10.0995736648  W2        13296           0.0000000000
     38458     12820  TIP3      OH2            20.7295994280       11.1381475841       11.2961936648  W2        13297           0.0000000000
     38459     12820  TIP3      H1             20.3601194280       10.3361975841       10.9266236648  W2        13297           0.0000000000
     38460     12820  TIP3      H2             21.6707094280       10.9696375841       11.3425336648  W2        13297           0.0000000000
     38461     12821  TIP3      OH2            17.3396494280        4.7984075841        6.6890736648  W2        13298           0.0000000000
     38462     12821  TIP3      H1             16.8919894280        5.6442775841        6.6707236648  W2        13298           0.0000000000
     38463     12821  TIP3      H2             16.7787694280        4.2188275841        6.1735836648  W2        13298           0.0000000000
     38464     12822  TIP3      OH2            18.0502594280        6.9603675841        8.8148736648  W2        13299           0.0000000000
     38465     12822  TIP3      H1             18.2636094280        6.1905275841        9.3421736648  W2        13299           0.0000000000
     38466     12822  TIP3      H2             18.7880194280        7.0500375841        8.2116336648  W2        13299           0.0000000000
     38467     12823  TIP3      OH2            28.2553594280       15.1172575841        9.6818436648  W2        13300           0.0000000000
     38468     12823  TIP3      H1             28.8749994280       14.4407275841        9.4087636648  W2        13300           0.0000000000
     38469     12823  TIP3      H2             28.0470994280       14.8993375841       10.5903336648  W2        13300           0.0000000000
     38470     12824  TIP3      OH2            25.8272294280        9.5061875841       11.5743936648  W2        13301           0.0000000000
     38471     12824  TIP3      H1             26.1310194280        8.8203275841       10.9798036648  W2        13301           0.0000000000
     38472     12824  TIP3      H2             26.5486294280        9.6250575841       12.1921936648  W2        13301           0.0000000000
     38473     12825  TIP3      OH2            34.4902094280        1.1077175841       12.4350136648  W2        13302           0.0000000000
     38474     12825  TIP3      H1             34.5394294280        1.7178375841       13.1709236648  W2        13302           0.0000000000
     38475     12825  TIP3      H2             34.9157194280        1.5688075841       11.7121236648  W2        13302           0.0000000000
     38476     12826  TIP3      OH2            28.9679294280        3.9004275841       11.9018736648  W2        13303           0.0000000000
     38477     12826  TIP3      H1             29.1105194280        2.9541275841       11.9220336648  W2        13303           0.0000000000
     38478     12826  TIP3      H2             28.8618294280        4.1074075841       10.9733636648  W2        13303           0.0000000000
     38479     12827  TIP3      OH2            22.1227594280        2.0020675841        9.1743536648  W2        13304           0.0000000000
     38480     12827  TIP3      H1             22.1658694280        2.8619175841        8.7559836648  W2        13304           0.0000000000
     38481     12827  TIP3      H2             21.6651694280        1.4495375841        8.5406736648  W2        13304           0.0000000000
     38482     12828  TIP3      OH2            29.8450294280        2.1326275841        7.5751836648  W2        13305           0.0000000000
     38483     12828  TIP3      H1             30.4914594280        1.8039475841        8.1999436648  W2        13305           0.0000000000
     38484     12828  TIP3      H2             30.3549694280        2.6505275841        6.9523236648  W2        13305           0.0000000000
     38485     12829  TIP3      OH2            18.7429094280        4.3986475841        9.9364936648  W2        13306           0.0000000000
     38486     12829  TIP3      H1             19.3965694280        3.8488175841       10.3685036648  W2        13306           0.0000000000
     38487     12829  TIP3      H2             18.7668394280        4.1245475841        9.0196936648  W2        13306           0.0000000000
     38488     12830  TIP3      OH2            23.8993594280        5.9487775841        9.1516436648  W2        13307           0.0000000000
     38489     12830  TIP3      H1             24.5154594280        5.4223175841        9.6610436648  W2        13307           0.0000000000
     38490     12830  TIP3      H2             23.3132394280        5.3086475841        8.7480036648  W2        13307           0.0000000000
     38491     12831  TIP3      OH2            34.8816694280        2.5856375841       14.6709936648  W2        13308           0.0000000000
     38492     12831  TIP3      H1             34.1931294280        3.2437075841       14.5756536648  W2        13308           0.0000000000
     38493     12831  TIP3      H2             34.8971294280        2.3884275841       15.6075336648  W2        13308           0.0000000000
     38494     12832  TIP3      OH2            20.9329494280        0.9199075841       13.2484336648  W2        13309           0.0000000000
     38495     12832  TIP3      H1             20.7141194280        1.4499675841       12.4820336648  W2        13309           0.0000000000
     38496     12832  TIP3      H2             20.2650394280        1.1464575841       13.8955736648  W2        13309           0.0000000000
     38497     12833  TIP3      OH2            28.3019294280       10.4200175841        6.7923436648  W2        13310           0.0000000000
     38498     12833  TIP3      H1             28.0064394280       10.0972475841        5.9410336648  W2        13310           0.0000000000
     38499     12833  TIP3      H2             27.9777094280       11.3196875841        6.8336036648  W2        13310           0.0000000000
     38500     12834  TIP3      OH2            23.5020894280        8.5954775841       13.5358036648  W2        13311           0.0000000000
     38501     12834  TIP3      H1             22.7619994280        9.1936275841       13.6393236648  W2        13311           0.0000000000
     38502     12834  TIP3      H2             24.2160394280        9.1494375841       13.2201636648  W2        13311           0.0000000000
     38503     12835  TIP3      OH2            31.6088694280        1.4235575841        9.5557736648  W2        13312           0.0000000000
     38504     12835  TIP3      H1             31.3936694280        0.6578975841       10.0883736648  W2        13312           0.0000000000
     38505     12835  TIP3      H2             32.2646094280        1.8960175841       10.0686236648  W2        13312           0.0000000000
     38506     12836  TIP3      OH2            20.5266794280        2.8120875841       11.2006536648  W2        13313           0.0000000000
     38507     12836  TIP3      H1             21.1403094280        3.4448475841       11.5738936648  W2        13313           0.0000000000
     38508     12836  TIP3      H2             21.0387494280        2.3395875841       10.5443436648  W2        13313           0.0000000000
     38509     12837  TIP3      OH2            21.9095194280       10.5597775841       14.3229536648  W2        13314           0.0000000000
     38510     12837  TIP3      H1             21.9042794280       11.4391275841       13.9448836648  W2        13314           0.0000000000
     38511     12837  TIP3      H2             21.0559294280       10.4761875841       14.7479436648  W2        13314           0.0000000000
     38512     12838  TIP3      OH2            18.0306094280       10.2305675841        5.1048836648  W2        13315           0.0000000000
     38513     12838  TIP3      H1             17.7586994280       10.4596675841        4.2161736648  W2        13315           0.0000000000
     38514     12838  TIP3      H2             18.0761794280       11.0684475841        5.5654136648  W2        13315           0.0000000000
     38515     12839  TIP3      OH2            31.6555794280       11.8521575841       11.8177336648  W2        13316           0.0000000000
     38516     12839  TIP3      H1             30.7139494280       11.9105475841       11.9794236648  W2        13316           0.0000000000
     38517     12839  TIP3      H2             31.9321894280       12.7582075841       11.6807036648  W2        13316           0.0000000000
     38518     12840  TIP3      OH2            31.9562794280        0.1386875841       13.2351236648  W2        13317           0.0000000000
     38519     12840  TIP3      H1             31.2201994280        0.7493975841       13.1972536648  W2        13317           0.0000000000
     38520     12840  TIP3      H2             32.6396794280        0.5535875841       12.7087636648  W2        13317           0.0000000000
     38521     12841  TIP3      OH2            24.9594194280       -1.7745824159       10.7009236648  W2        13318           0.0000000000
     38522     12841  TIP3      H1             24.8418394280       -2.7229824159       10.6467536648  W2        13318           0.0000000000
     38523     12841  TIP3      H2             24.1044294280       -1.4419724159       10.9740336648  W2        13318           0.0000000000
     38524     12842  TIP3      OH2            29.9076994280       13.6335075841        8.4428936648  W2        13319           0.0000000000
     38525     12842  TIP3      H1             30.3329294280       12.9262975841        7.9578536648  W2        13319           0.0000000000
     38526     12842  TIP3      H2             30.2246994280       14.4347775841        8.0261136648  W2        13319           0.0000000000
     38527     12843  TIP3      OH2            31.0673494280       11.5343575841        6.9515536648  W2        13320           0.0000000000
     38528     12843  TIP3      H1             30.8098294280       10.8443675841        6.3401436648  W2        13320           0.0000000000
     38529     12843  TIP3      H2             31.1384294280       11.0914775841        7.7971436648  W2        13320           0.0000000000
     38530     12844  TIP3      OH2            32.7533694280       10.1010275841       15.4289036648  W2        13321           0.0000000000
     38531     12844  TIP3      H1             32.8929994280        9.5092775841       14.6896036648  W2        13321           0.0000000000
     38532     12844  TIP3      H2             32.9206494280       10.9736175841       15.0727836648  W2        13321           0.0000000000
     38533     12845  TIP3      OH2            27.2259094280        7.0629775841        5.2015036648  W2        13322           0.0000000000
     38534     12845  TIP3      H1             26.5144594280        7.5979475841        4.8495536648  W2        13322           0.0000000000
     38535     12845  TIP3      H2             27.9168694280        7.1181875841        4.5413936648  W2        13322           0.0000000000
     38536     12846  TIP3      OH2            27.2798294280        5.5204075841        2.2400036648  W2        13323           0.0000000000
     38537     12846  TIP3      H1             27.9808194280        5.5430975841        2.8914036648  W2        13323           0.0000000000
     38538     12846  TIP3      H2             27.5821194280        4.8923775841        1.5839336648  W2        13323           0.0000000000
     38539     12847  TIP3      OH2            34.5952994280        6.4408275841       13.4949436648  W2        13324           0.0000000000
     38540     12847  TIP3      H1             33.9427094280        7.1353875841       13.5840336648  W2        13324           0.0000000000
     38541     12847  TIP3      H2             35.0603294280        6.6509175841       12.6851036648  W2        13324           0.0000000000
     38542     12848  TIP3      OH2            30.6316794280        7.2723075841        6.1530936648  W2        13325           0.0000000000
     38543     12848  TIP3      H1             29.8997794280        7.5006775841        6.7261536648  W2        13325           0.0000000000
     38544     12848  TIP3      H2             31.0788994280        6.5585775841        6.6078436648  W2        13325           0.0000000000
     38545     12849  TIP3      OH2            30.5290294280        5.4465675841       15.2207936648  W2        13326           0.0000000000
     38546     12849  TIP3      H1             30.6089394280        6.2100075841       15.7926436648  W2        13326           0.0000000000
     38547     12849  TIP3      H2             29.9277994280        5.7258075841       14.5303036648  W2        13326           0.0000000000
     38548     12850  TIP3      OH2            22.2770494280        7.9029275841        8.0355936648  W2        13327           0.0000000000
     38549     12850  TIP3      H1             21.9465694280        7.5322675841        7.2172936648  W2        13327           0.0000000000
     38550     12850  TIP3      H2             22.8654594280        7.2323275841        8.3824236648  W2        13327           0.0000000000
     38551     12851  TIP3      OH2            23.6437994280       11.3309875841       10.7168136648  W2        13328           0.0000000000
     38552     12851  TIP3      H1             23.5489294280       10.7522975841        9.9602736648  W2        13328           0.0000000000
     38553     12851  TIP3      H2             24.3731594280       10.9595575841       11.2130936648  W2        13328           0.0000000000
     38554     12852  TIP3      OH2            22.6435994280        6.6714875841       11.6690936648  W2        13329           0.0000000000
     38555     12852  TIP3      H1             23.2088494280        6.7929075841       10.9062136648  W2        13329           0.0000000000
     38556     12852  TIP3      H2             22.9624894280        7.3089875841       12.3079436648  W2        13329           0.0000000000
     38557     12853  TIP3      OH2            28.9528194280       12.1746775841       12.4031436648  W2        13330           0.0000000000
     38558     12853  TIP3      H1             28.7124794280       12.8369875841       13.0510636648  W2        13330           0.0000000000
     38559     12853  TIP3      H2             28.7546394280       11.3401975841       12.8281036648  W2        13330           0.0000000000
     38560     12854  TIP3      OH2            23.5236694280       11.0707575841       16.3862836648  W2        13331           0.0000000000
     38561     12854  TIP3      H1             23.2124194280       11.8530775841       16.8416036648  W2        13331           0.0000000000
     38562     12854  TIP3      H2             22.8736894280       10.9176675841       15.7004836648  W2        13331           0.0000000000
     38563     12855  TIP3      OH2            29.5026294280        6.4345975841        3.8382136648  W2        13332           0.0000000000
     38564     12855  TIP3      H1             30.0821794280        6.5846275841        4.5851036648  W2        13332           0.0000000000
     38565     12855  TIP3      H2             29.9166294280        6.9053375841        3.1148536648  W2        13332           0.0000000000
     38566     12856  TIP3      OH2            20.4436594280        7.2688675841       15.6148536648  W2        13333           0.0000000000
     38567     12856  TIP3      H1             20.5139794280        7.9195475841       16.3133536648  W2        13333           0.0000000000
     38568     12856  TIP3      H2             19.5528794280        7.3716175841       15.2799436648  W2        13333           0.0000000000
     38569     12857  TIP3      OH2            27.2291194280       13.1714475841        7.2735236648  W2        13334           0.0000000000
     38570     12857  TIP3      H1             27.7028794280       13.4670775841        8.0509436648  W2        13334           0.0000000000
     38571     12857  TIP3      H2             26.6660494280       13.9096075841        7.0404836648  W2        13334           0.0000000000
     38572     12858  TIP3      OH2            21.7632594280       13.1422575841       17.1496636648  W2        13335           0.0000000000
     38573     12858  TIP3      H1             21.7707894280       13.0062275841       16.2022136648  W2        13335           0.0000000000
     38574     12858  TIP3      H2             20.8472994280       13.0250675841       17.4016636648  W2        13335           0.0000000000
     38575     12859  TIP3      OH2            33.2014694280       -1.8153624159        3.6511836648  W2        13336           0.0000000000
     38576     12859  TIP3      H1             32.3015394280       -1.6764624159        3.9462436648  W2        13336           0.0000000000
     38577     12859  TIP3      H2             33.4533094280       -0.9839024159        3.2493536648  W2        13336           0.0000000000
     38578     12860  TIP3      OH2            21.2673194280        6.9723575841        5.6248736648  W2        13337           0.0000000000
     38579     12860  TIP3      H1             20.9754494280        7.7405275841        5.1340036648  W2        13337           0.0000000000
     38580     12860  TIP3      H2             20.5928394280        6.3129775841        5.4620136648  W2        13337           0.0000000000
     38581     12861  TIP3      OH2            34.3906094280       12.5508775841        2.0275736648  W2        13338           0.0000000000
     38582     12861  TIP3      H1             34.4639594280       13.4898975841        2.1981036648  W2        13338           0.0000000000
     38583     12861  TIP3      H2             35.2961194280       12.2457375841        1.9713036648  W2        13338           0.0000000000
     38584     12862  TIP3      OH2            17.3603294280        9.3352775841       14.4398536648  W2        13339           0.0000000000
     38585     12862  TIP3      H1             16.8591694280        9.3072175841       13.6248236648  W2        13339           0.0000000000
     38586     12862  TIP3      H2             17.3656994280        8.4295975841       14.7495836648  W2        13339           0.0000000000
     38587     12863  TIP3      OH2            17.1105994280       12.1156575841       11.3238736648  W2        13340           0.0000000000
     38588     12863  TIP3      H1             18.0566594280       11.9713575841       11.3048236648  W2        13340           0.0000000000
     38589     12863  TIP3      H2             16.9982294280       12.8999375841       11.8609936648  W2        13340           0.0000000000
     38590     12864  TIP3      OH2            35.3084494280       12.7816275841       17.0062436648  W2        13341           0.0000000000
     38591     12864  TIP3      H1             35.2591294280       11.8264375841       16.9690036648  W2        13341           0.0000000000
     38592     12864  TIP3      H2             34.4816794280       13.0491575841       17.4076236648  W2        13341           0.0000000000
     38593     12865  TIP3      OH2            26.2868494280       12.3555475841       15.8823836648  W2        13342           0.0000000000
     38594     12865  TIP3      H1             26.3743094280       13.1820075841       16.3572936648  W2        13342           0.0000000000
     38595     12865  TIP3      H2             25.4233594280       12.0259275841       16.1313136648  W2        13342           0.0000000000
     38596     12866  TIP3      OH2            26.7014294280       16.1279175841        5.6884436648  W2        13343           0.0000000000
     38597     12866  TIP3      H1             26.6260294280       16.0066375841        4.7419636648  W2        13343           0.0000000000
     38598     12866  TIP3      H2             26.7342994280       17.0771875841        5.8069036648  W2        13343           0.0000000000
     38599     12867  TIP3      OH2            20.3548094280       14.9166175841        7.4693436648  W2        13344           0.0000000000
     38600     12867  TIP3      H1             20.5068494280       14.5686575841        8.3479936648  W2        13344           0.0000000000
     38601     12867  TIP3      H2             19.5038494280       14.5603475841        7.2140636648  W2        13344           0.0000000000
     38602     12868  TIP3      OH2            29.8030294280       15.2819375841        2.6906836648  W2        13345           0.0000000000
     38603     12868  TIP3      H1             30.1778694280       14.5375475841        2.2199436648  W2        13345           0.0000000000
     38604     12868  TIP3      H2             29.8073994280       15.0119975841        3.6090136648  W2        13345           0.0000000000
     38605     12869  TIP3      OH2            29.4718394280       15.2076475841        5.4399036648  W2        13346           0.0000000000
     38606     12869  TIP3      H1             28.5368194280       15.3078375841        5.6186036648  W2        13346           0.0000000000
     38607     12869  TIP3      H2             29.7520294280       14.4982475841        6.0182236648  W2        13346           0.0000000000
     38608     12870  TIP3      OH2            32.4604294280        4.2748775841       17.4864636648  W2        13347           0.0000000000
     38609     12870  TIP3      H1             32.0531094280        4.7554375841       16.7657936648  W2        13347           0.0000000000
     38610     12870  TIP3      H2             32.5009994280        3.3694775841       17.1785436648  W2        13347           0.0000000000
     38611     12871  TIP3      OH2            19.6093794280       10.6588175841       15.4831336648  W2        13348           0.0000000000
     38612     12871  TIP3      H1             19.8255094280       10.2973775841       16.3427136648  W2        13348           0.0000000000
     38613     12871  TIP3      H2             18.7538494280       10.2841975841       15.2734836648  W2        13348           0.0000000000
     38614     12872  TIP3      OH2            22.2281794280       -0.8711324159       11.4785536648  W2        13349           0.0000000000
     38615     12872  TIP3      H1             21.3665494280       -0.9583124159       11.0708436648  W2        13349           0.0000000000
     38616     12872  TIP3      H2             22.2057494280       -0.0151224159       11.9063136648  W2        13349           0.0000000000
     38617     12873  TIP3      OH2            26.8909594280       -1.1490924159       14.8532536648  W2        13350           0.0000000000
     38618     12873  TIP3      H1             27.3112694280       -1.5643824159       15.6063136648  W2        13350           0.0000000000
     38619     12873  TIP3      H2             25.9579194280       -1.3277624159       14.9704536648  W2        13350           0.0000000000
     38620     12874  TIP3      OH2            30.2174494280        2.6064275841       15.7067036648  W2        13351           0.0000000000
     38621     12874  TIP3      H1             29.7033994280        2.4806475841       16.5043036648  W2        13351           0.0000000000
     38622     12874  TIP3      H2             30.0619194280        3.5187375841       15.4623236648  W2        13351           0.0000000000
     38623     12875  TIP3      OH2            30.9799394280        7.4674275841        1.4680036648  W2        13352           0.0000000000
     38624     12875  TIP3      H1             31.0220194280        7.2448175841        0.5380036648  W2        13352           0.0000000000
     38625     12875  TIP3      H2             31.8291494280        7.8661375841        1.6579936648  W2        13352           0.0000000000
     38626     12876  TIP3      OH2            26.5526894280        1.3432475841        2.1383336648  W2        13353           0.0000000000
     38627     12876  TIP3      H1             26.2991694280        1.3624075841        3.0611436648  W2        13353           0.0000000000
     38628     12876  TIP3      H2             26.2958994280        0.4717875841        1.8369536648  W2        13353           0.0000000000
     38629     12877  TIP3      OH2            22.3191894280        4.0943175841       12.5735736648  W2        13354           0.0000000000
     38630     12877  TIP3      H1             21.6773994280        4.0540475841       13.2825836648  W2        13354           0.0000000000
     38631     12877  TIP3      H2             22.3563894280        5.0207875841       12.3358736648  W2        13354           0.0000000000
     38632     12878  TIP3      OH2            22.3160994280        4.3153275841        7.4855736648  W2        13355           0.0000000000
     38633     12878  TIP3      H1             21.4233894280        3.9749375841        7.4269536648  W2        13355           0.0000000000
     38634     12878  TIP3      H2             22.7667594280        3.9384175841        6.7298936648  W2        13355           0.0000000000
     38635     12879  TIP3      OH2            27.8516494280        4.7313575841        6.3026536648  W2        13356           0.0000000000
     38636     12879  TIP3      H1             27.4426794280        5.5462175841        6.0111336648  W2        13356           0.0000000000
     38637     12879  TIP3      H2             28.5722694280        4.5913675841        5.6883636648  W2        13356           0.0000000000
     38638     12880  TIP3      OH2            26.9538094280        4.9069975841       17.7907236648  W2        13357           0.0000000000
     38639     12880  TIP3      H1             26.3911894280        4.2021575841       18.1115036648  W2        13357           0.0000000000
     38640     12880  TIP3      H2             27.7801494280        4.7861875841       18.2584836648  W2        13357           0.0000000000
     38641     12881  TIP3      OH2            28.8564194280        4.1773975841        9.1166236648  W2        13358           0.0000000000
     38642     12881  TIP3      H1             28.6608694280        4.7830775841        8.4016836648  W2        13358           0.0000000000
     38643     12881  TIP3      H2             29.0376794280        3.3439175841        8.6822536648  W2        13358           0.0000000000
     38644     12882  TIP3      OH2            20.0692394280        4.4146675841       14.4407736648  W2        13359           0.0000000000
     38645     12882  TIP3      H1             20.0311794280        4.8148275841       15.3094836648  W2        13359           0.0000000000
     38646     12882  TIP3      H2             19.5783494280        3.5979075841       14.5310636648  W2        13359           0.0000000000
     38647     12883  TIP3      OH2            23.4349794280        1.7888975841        1.2393736648  W2        13360           0.0000000000
     38648     12883  TIP3      H1             23.0040494280        1.3439075841        1.9691136648  W2        13360           0.0000000000
     38649     12883  TIP3      H2             22.7168494280        2.1605275841        0.7271236648  W2        13360           0.0000000000
     38650     12884  TIP3      OH2            16.6773194280        1.5308475841        8.2912436648  W2        13361           0.0000000000
     38651     12884  TIP3      H1             17.3080894280        1.5020575841        9.0106336648  W2        13361           0.0000000000
     38652     12884  TIP3      H2             17.1267494280        1.1057175841        7.5608336648  W2        13361           0.0000000000
     38653     12885  TIP3      OH2            17.9515294280        2.2770475841        3.7152836648  W2        13362           0.0000000000
     38654     12885  TIP3      H1             18.4256994280        2.8680375841        3.1303736648  W2        13362           0.0000000000
     38655     12885  TIP3      H2             17.2341694280        2.8073375841        4.0622936648  W2        13362           0.0000000000
     38656     12886  TIP3      OH2            28.1203394280        5.8155275841       13.7878636648  W2        13363           0.0000000000
     38657     12886  TIP3      H1             28.4438194280        5.1844975841       13.1449136648  W2        13363           0.0000000000
     38658     12886  TIP3      H2             27.6802694280        5.2807475841       14.4486036648  W2        13363           0.0000000000
     38659     12887  TIP3      OH2            24.8976294280        1.7430775841        8.5719836648  W2        13364           0.0000000000
     38660     12887  TIP3      H1             23.9867394280        1.7997575841        8.8605836648  W2        13364           0.0000000000
     38661     12887  TIP3      H2             25.4029194280        1.6826275841        9.3827036648  W2        13364           0.0000000000
     38662     12888  TIP3      OH2            19.7259694280        3.3717075841        7.3987436648  W2        13365           0.0000000000
     38663     12888  TIP3      H1             18.8367694280        3.4712575841        7.0587036648  W2        13365           0.0000000000
     38664     12888  TIP3      H2             20.0224594280        2.5300075841        7.0525336648  W2        13365           0.0000000000
     38665     12889  TIP3      OH2            23.3791494280        3.3719675841        5.0552036648  W2        13366           0.0000000000
     38666     12889  TIP3      H1             24.3106994280        3.5009675841        5.2335136648  W2        13366           0.0000000000
     38667     12889  TIP3      H2             23.1641794280        4.0413975841        4.4056736648  W2        13366           0.0000000000
     38668     12890  TIP3      OH2            29.3028194280        0.9777075841       11.8361636648  W2        13367           0.0000000000
     38669     12890  TIP3      H1             28.6259794280        1.1090175841       12.5001336648  W2        13367           0.0000000000
     38670     12890  TIP3      H2             28.8173094280        0.8226575841       11.0259336648  W2        13367           0.0000000000
     38671     12891  TIP3      OH2            22.0531694280        4.5661875841        2.6218136648  W2        13368           0.0000000000
     38672     12891  TIP3      H1             21.5106794280        4.1865675841        1.9305736648  W2        13368           0.0000000000
     38673     12891  TIP3      H2             22.8866594280        4.7606575841        2.1932236648  W2        13368           0.0000000000
     38674     12892  TIP3      OH2            20.1883094280        9.1233775841       17.7209736648  W2        13370           0.0000000000
     38675     12892  TIP3      H1             20.9205494280        9.3779675841       18.2824236648  W2        13370           0.0000000000
     38676     12892  TIP3      H2             19.4081794280        9.3279175841       18.2365136648  W2        13370           0.0000000000
     38677     12893  TIP3      OH2            26.2175994280        4.5303775841       10.4589436648  W2        13371           0.0000000000
     38678     12893  TIP3      H1             26.7819394280        3.9840375841        9.9119036648  W2        13371           0.0000000000
     38679     12893  TIP3      H2             26.0699394280        4.0085675841       11.2477036648  W2        13371           0.0000000000
     38680     12894  TIP3      OH2            21.2195694280        0.6669875841        6.8774236648  W2        13372           0.0000000000
     38681     12894  TIP3      H1             20.9025194280       -0.2354824159        6.8419636648  W2        13372           0.0000000000
     38682     12894  TIP3      H2             22.0009794280        0.6687275841        6.3245836648  W2        13372           0.0000000000
     38683     12895  TIP3      OH2            24.8441894280        2.9189875841       12.8729836648  W2        13373           0.0000000000
     38684     12895  TIP3      H1             24.0087194280        3.3729375841       12.9832236648  W2        13373           0.0000000000
     38685     12895  TIP3      H2             25.3682494280        3.1948375841       13.6249736648  W2        13373           0.0000000000
     38686     12896  TIP3      OH2            25.3884494280        9.1317575841        4.5576236648  W2        13374           0.0000000000
     38687     12896  TIP3      H1             24.6435494280        8.6242875841        4.2354136648  W2        13374           0.0000000000
     38688     12896  TIP3      H2             25.2541694280        9.1805575841        5.5041036648  W2        13374           0.0000000000
     38689     12897  TIP3      OH2            32.5383394280        8.2645775841       13.3443836648  W2        13375           0.0000000000
     38690     12897  TIP3      H1             33.1802194280        8.7212075841       12.8006036648  W2        13375           0.0000000000
     38691     12897  TIP3      H2             31.7080294280        8.3778175841       12.8817936648  W2        13375           0.0000000000
     38692     12898  TIP3      OH2            29.2861294280        1.9457475841        2.7568836648  W2        13376           0.0000000000
     38693     12898  TIP3      H1             28.3475494280        2.0573075841        2.6057636648  W2        13376           0.0000000000
     38694     12898  TIP3      H2             29.5833394280        2.8024375841        3.0634536648  W2        13376           0.0000000000
     38695     12899  TIP3      OH2            26.9076594280        9.3160875841       15.7945336648  W2        13377           0.0000000000
     38696     12899  TIP3      H1             26.5622694280        8.9343275841       16.6014936648  W2        13377           0.0000000000
     38697     12899  TIP3      H2             26.7076694280       10.2494475841       15.8658236648  W2        13377           0.0000000000
     38698     12900  TIP3      OH2            30.0044794280        3.8130175841        4.4176236648  W2        13378           0.0000000000
     38699     12900  TIP3      H1             30.8963794280        3.6755175841        4.7367436648  W2        13378           0.0000000000
     38700     12900  TIP3      H2             30.0608394280        4.6036275841        3.8809736648  W2        13378           0.0000000000
     38701     12901  TIP3      OH2            20.5132794280        8.4267575841       10.3274136648  W2        13379           0.0000000000
     38702     12901  TIP3      H1             21.2579994280        8.4243275841        9.7260636648  W2        13379           0.0000000000
     38703     12901  TIP3      H2             20.5909394280        7.6031375841       10.8089236648  W2        13379           0.0000000000
     38704     12902  TIP3      OH2            27.5138594280       10.5901875841        3.5830836648  W2        13380           0.0000000000
     38705     12902  TIP3      H1             27.2186994280       11.4169775841        3.9645636648  W2        13380           0.0000000000
     38706     12902  TIP3      H2             26.8108594280        9.9708775841        3.7792236648  W2        13380           0.0000000000
     38707     12903  TIP3      OH2            17.5212494280        6.8874475841       15.6422636648  W2        13381           0.0000000000
     38708     12903  TIP3      H1             17.7441094280        6.4694075841       16.4740136648  W2        13381           0.0000000000
     38709     12903  TIP3      H2             16.9192594280        6.2749475841       15.2195436648  W2        13381           0.0000000000
     38710     12904  TIP3      OH2            29.1580194280       11.7776375841       15.7450336648  W2        13383           0.0000000000
     38711     12904  TIP3      H1             28.2574494280       11.9608975841       15.4774236648  W2        13383           0.0000000000
     38712     12904  TIP3      H2             29.1921294280       12.0365675841       16.6659136648  W2        13383           0.0000000000
     38713     12905  TIP3      OH2            34.8893494280        4.0224275841        4.1122936648  W2        13384           0.0000000000
     38714     12905  TIP3      H1             34.3349794280        3.6262275841        3.4400436648  W2        13384           0.0000000000
     38715     12905  TIP3      H2             34.9897094280        4.9329475841        3.8346236648  W2        13384           0.0000000000
     38716     12906  TIP3      OH2            34.8525494280        9.8225975841       16.9494436648  W2        13385           0.0000000000
     38717     12906  TIP3      H1             34.0013994280       10.0609775841       16.5820836648  W2        13385           0.0000000000
     38718     12906  TIP3      H2             35.4428894280        9.8059175841       16.1961536648  W2        13385           0.0000000000
     38719     12907  TIP3      OH2            33.1845194280       12.8084675841        4.5775036648  W2        13386           0.0000000000
     38720     12907  TIP3      H1             32.8116294280       11.9828475841        4.8865636648  W2        13386           0.0000000000
     38721     12907  TIP3      H2             33.4618694280       12.6254075841        3.6798436648  W2        13386           0.0000000000
     38722     12908  TIP3      OH2            30.3449094280        7.6164175841       11.5986936648  W2        13387           0.0000000000
     38723     12908  TIP3      H1             29.4165994280        7.3846075841       11.5716236648  W2        13387           0.0000000000
     38724     12908  TIP3      H2             30.7960194280        6.8393975841       11.2685736648  W2        13387           0.0000000000
     38725     12909  TIP3      OH2            22.8882194280       11.9445775841        7.7315636648  W2        13388           0.0000000000
     38726     12909  TIP3      H1             23.4154394280       12.7180175841        7.5314436648  W2        13388           0.0000000000
     38727     12909  TIP3      H2             22.0080694280       12.1694975841        7.4299636648  W2        13388           0.0000000000
     38728     12910  TIP3      OH2            18.6429894280        6.8069875841        2.3188036648  W2        13389           0.0000000000
     38729     12910  TIP3      H1             19.2589794280        7.4337075841        2.6982836648  W2        13389           0.0000000000
     38730     12910  TIP3      H2             17.7812494280        7.1229675841        2.5904536648  W2        13389           0.0000000000
     38731     12911  TIP3      OH2            24.3154494280        9.6075675841        7.3079936648  W2        13390           0.0000000000
     38732     12911  TIP3      H1             24.0744494280       10.5330075841        7.3495236648  W2        13390           0.0000000000
     38733     12911  TIP3      H2             23.5748094280        9.1486975841        7.7043836648  W2        13390           0.0000000000
     38734     12912  TIP3      OH2            24.8301094280       13.7569275841       13.6231036648  W2        13391           0.0000000000
     38735     12912  TIP3      H1             25.1925794280       14.6114875841       13.3895436648  W2        13391           0.0000000000
     38736     12912  TIP3      H2             25.3616294280       13.4650875841       14.3637336648  W2        13391           0.0000000000
     38737     12913  TIP3      OH2            22.9985294280       14.6293275841        6.8532136648  W2        13392           0.0000000000
     38738     12913  TIP3      H1             22.0485794280       14.7350675841        6.9045436648  W2        13392           0.0000000000
     38739     12913  TIP3      H2             23.3503394280       15.4500675841        7.1979636648  W2        13392           0.0000000000
     38740     12914  TIP3      OH2            28.3741894280        9.8559975841       13.3236636648  W2        13393           0.0000000000
     38741     12914  TIP3      H1             27.9483194280        9.6281675841       14.1500636648  W2        13393           0.0000000000
     38742     12914  TIP3      H2             28.9547694280        9.1171775841       13.1411936648  W2        13393           0.0000000000
     38743     12915  TIP3      OH2            30.5770794280       10.7850475841        2.3975636648  W2        13394           0.0000000000
     38744     12915  TIP3      H1             30.9303894280       10.4050275841        3.2019136648  W2        13394           0.0000000000
     38745     12915  TIP3      H2             29.6284294280       10.6915275841        2.4844936648  W2        13394           0.0000000000
     38746     12916  TIP3      OH2            31.0326094280       14.4079475841       15.7931436648  W2        13395           0.0000000000
     38747     12916  TIP3      H1             30.4309294280       13.8522375841       15.2977736648  W2        13395           0.0000000000
     38748     12916  TIP3      H2             31.3139794280       15.0749275841       15.1668836648  W2        13395           0.0000000000
     38749     12917  TIP3      OH2            35.0805194280       15.2642975841        2.5985836648  W2        13396           0.0000000000
     38750     12917  TIP3      H1             35.8243094280       15.8503475841        2.4587436648  W2        13396           0.0000000000
     38751     12917  TIP3      H2             34.3863294280       15.8328775841        2.9318236648  W2        13396           0.0000000000
     38752     12918  TIP3      OH2            19.1551994280        1.6407175841       15.2004036648  W2        13397           0.0000000000
     38753     12918  TIP3      H1             18.2624294280        1.9792575841       15.1328036648  W2        13397           0.0000000000
     38754     12918  TIP3      H2             19.0564794280        0.7853275841       15.6184836648  W2        13397           0.0000000000
     38755     12919  TIP3      OH2            31.4430094280        9.4572475841        4.6243536648  W2        13398           0.0000000000
     38756     12919  TIP3      H1             31.1657694280        8.7291775841        5.1804636648  W2        13398           0.0000000000
     38757     12919  TIP3      H2             32.3703094280        9.5764475841        4.8296136648  W2        13398           0.0000000000
     38758     12920  TIP3      OH2            18.8063994280       13.4451575841       13.6353436648  W2        13399           0.0000000000
     38759     12920  TIP3      H1             19.0234294280       12.5133975841       13.6043136648  W2        13399           0.0000000000
     38760     12920  TIP3      H2             19.0527494280       13.7196575841       14.5186236648  W2        13399           0.0000000000
     38761     12921  TIP3      OH2            24.6678594280       11.8966575841        0.8445636648  W2        13400           0.0000000000
     38762     12921  TIP3      H1             24.9068394280       11.1484675841        0.2974536648  W2        13400           0.0000000000
     38763     12921  TIP3      H2             24.3989894280       11.5088275841        1.6773436648  W2        13400           0.0000000000
     38764     12922  TIP3      OH2            23.6049194280       11.4670375841        3.3008236648  W2        13401           0.0000000000
     38765     12922  TIP3      H1             23.7517194280       10.9470175841        4.0909136648  W2        13401           0.0000000000
     38766     12922  TIP3      H2             23.6020894280       12.3737975841        3.6074136648  W2        13401           0.0000000000
     38767     12923  TIP3      OH2            20.0580294280        8.7193675841        3.8113636648  W2        13402           0.0000000000
     38768     12923  TIP3      H1             19.3719594280        9.0716175841        4.3783336648  W2        13402           0.0000000000
     38769     12923  TIP3      H2             20.5808194280        9.4823275841        3.5647936648  W2        13402           0.0000000000
     38770     12924  TIP3      OH2            27.8895394280        1.3817475841       14.0902636648  W2        13403           0.0000000000
     38771     12924  TIP3      H1             28.5883294280        1.4556175841       14.7402336648  W2        13403           0.0000000000
     38772     12924  TIP3      H2             27.5086794280        0.5172475841       14.2445536648  W2        13403           0.0000000000
     38773     12925  TIP3      OH2            28.6740294280        1.0339175841        5.1874936648  W2        13404           0.0000000000
     38774     12925  TIP3      H1             28.8938594280        1.5054575841        4.3840336648  W2        13404           0.0000000000
     38775     12925  TIP3      H2             29.2324294280        1.4281775841        5.8575536648  W2        13404           0.0000000000
     38776     12926  TIP3      OH2            26.3426394280       13.1643975841        4.0502436648  W2        13405           0.0000000000
     38777     12926  TIP3      H1             25.5262494280       13.6613675841        4.1026736648  W2        13405           0.0000000000
     38778     12926  TIP3      H2             26.8722694280       13.6397475841        3.4101236648  W2        13405           0.0000000000
     38779     12927  TIP3      OH2            25.8740194280        2.7617975841        6.0223336648  W2        13406           0.0000000000
     38780     12927  TIP3      H1             26.6862794280        3.2661175841        6.0685036648  W2        13406           0.0000000000
     38781     12927  TIP3      H2             25.6293194280        2.6167675841        6.9362936648  W2        13406           0.0000000000
     38782     12928  TIP3      OH2            26.4096594280        3.7480675841       15.2069936648  W2        13407           0.0000000000
     38783     12928  TIP3      H1             26.5286894280        4.3216075841       15.9640336648  W2        13407           0.0000000000
     38784     12928  TIP3      H2             27.0651194280        3.0600075841       15.3217736648  W2        13407           0.0000000000
     38785     12929  TIP3      OH2            26.7576894280       -0.1569024159        6.9604436648  W2        13408           0.0000000000
     38786     12929  TIP3      H1             26.4110394280        0.4601575841        7.6048736648  W2        13408           0.0000000000
     38787     12929  TIP3      H2             27.4163794280        0.3436675841        6.4789936648  W2        13408           0.0000000000
     38788     12930  TIP3      OH2            23.6809494280       14.2081175841        4.0319336648  W2        13409           0.0000000000
     38789     12930  TIP3      H1             23.8418194280       15.0078675841        3.5311936648  W2        13409           0.0000000000
     38790     12930  TIP3      H2             23.4837294280       14.5147175841        4.9169936648  W2        13409           0.0000000000
     38791     12931  TIP3      OH2            22.4153894280        0.9060375841        3.6476936648  W2        13410           0.0000000000
     38792     12931  TIP3      H1             22.3318694280        1.7943475841        3.9943336648  W2        13410           0.0000000000
     38793     12931  TIP3      H2             23.3054194280        0.6407075841        3.8793736648  W2        13410           0.0000000000
     38794     12932  TIP3      OH2            32.6142394280        1.6550975841       16.0419636648  W2        13411           0.0000000000
     38795     12932  TIP3      H1             31.6978194280        1.9172675841       15.9543336648  W2        13411           0.0000000000
     38796     12932  TIP3      H2             32.9497394280        1.6519975841       15.1454936648  W2        13411           0.0000000000
     38797     12933  TIP3      OH2            31.2163394280        5.4051975841       10.1376936648  W2        13412           0.0000000000
     38798     12933  TIP3      H1             30.4187794280        4.9902175841        9.8091936648  W2        13412           0.0000000000
     38799     12933  TIP3      H2             31.6614494280        4.7145675841       10.6287436648  W2        13412           0.0000000000
     38800     12934  TIP3      OH2            20.6739194280       11.3332575841        2.7081436648  W2        13413           0.0000000000
     38801     12934  TIP3      H1             21.2660694280       12.0327375841        2.9843836648  W2        13413           0.0000000000
     38802     12934  TIP3      H2             21.1332194280       10.9002075841        1.9886036648  W2        13413           0.0000000000
     38803     12935  TIP3      OH2            18.9898394280        3.9975575841        1.8240836648  W2        13414           0.0000000000
     38804     12935  TIP3      H1             18.9450994280        4.9368675841        2.0027836648  W2        13414           0.0000000000
     38805     12935  TIP3      H2             18.1021594280        3.7620475841        1.5542936648  W2        13414           0.0000000000
     38806     12936  TIP3      OH2            32.3027994280       14.6614475841       11.7600436648  W2        13415           0.0000000000
     38807     12936  TIP3      H1             32.1472294280       15.3398875841       11.1029736648  W2        13415           0.0000000000
     38808     12936  TIP3      H2             33.2354394280       14.7333775841       11.9631036648  W2        13415           0.0000000000
     38809     12937  TIP3      OH2            19.7980394280       -1.2207824159       10.4971836648  W2        13416           0.0000000000
     38810     12937  TIP3      H1             19.5690194280       -1.1615324159        9.5696836648  W2        13416           0.0000000000
     38811     12937  TIP3      H2             19.3553794280       -2.0122324159       10.8035936648  W2        13416           0.0000000000
     38812     12938  TIP3      OH2            18.7283694280       12.7199275841        6.6577636648  W2        13417           0.0000000000
     38813     12938  TIP3      H1             17.8962294280       13.1921975841        6.6849036648  W2        13417           0.0000000000
     38814     12938  TIP3      H2             19.2741994280       13.2296875841        6.0590736648  W2        13417           0.0000000000
     38815     12939  TIP3      OH2            26.7060394280       13.7597975841        0.9831636648  W2        13420           0.0000000000
     38816     12939  TIP3      H1             26.0621394280       13.1286575841        1.3045336648  W2        13420           0.0000000000
     38817     12939  TIP3      H2             27.4678694280       13.2285975841        0.7515136648  W2        13420           0.0000000000
     38818     12940  TIP3      OH2            31.3103294280       13.5767875841        1.2169636648  W2        13422           0.0000000000
     38819     12940  TIP3      H1             31.5933694280       12.7823075841        1.6696536648  W2        13422           0.0000000000
     38820     12940  TIP3      H2             32.0501194280       13.8098875841        0.6560736648  W2        13422           0.0000000000
     38821     12941  TIP3      OH2            22.2650594280        9.4862775841        1.0744536648  W2        13424           0.0000000000
     38822     12941  TIP3      H1             22.3294694280        8.6922375841        1.6050936648  W2        13424           0.0000000000
     38823     12941  TIP3      H2             22.9179794280        9.3675575841        0.3846536648  W2        13424           0.0000000000
     38824     12942  TIP3      OH2            27.6173994280       10.5334475841        0.8102536648  W2        13426           0.0000000000
     38825     12942  TIP3      H1             27.3488094280       10.7136575841        1.7111436648  W2        13426           0.0000000000
     38826     12942  TIP3      H2             27.4109594280        9.6080675841        0.6788336648  W2        13426           0.0000000000
     38827     12943  TIP3      OH2            30.3138194280        9.0282475841       15.7578636648  W2        13427           0.0000000000
     38828     12943  TIP3      H1             31.0592994280        9.6166175841       15.6382636648  W2        13427           0.0000000000
     38829     12943  TIP3      H2             29.5564994280        9.6102175841       15.8211736648  W2        13427           0.0000000000
     38830     12944  TIP3      OH2            23.4144394280        7.4588975841        3.3802536648  W2        13429           0.0000000000
     38831     12944  TIP3      H1             22.9546394280        6.9747275841        4.0661036648  W2        13429           0.0000000000
     38832     12944  TIP3      H2             23.6693094280        6.7904375841        2.7443036648  W2        13429           0.0000000000
     38833     12945  TIP3      OH2            22.7033694280        5.3516075841       15.7362136648  W2        13430           0.0000000000
     38834     12945  TIP3      H1             22.0849794280        6.0262675841       16.0166836648  W2        13430           0.0000000000
     38835     12945  TIP3      H2             23.0474894280        5.6729975841       14.9028336648  W2        13430           0.0000000000
     38836     12946  TIP3      OH2            24.4854794280        5.7020775841        1.6425736648  W2        13431           0.0000000000
     38837     12946  TIP3      H1             24.3049794280        5.5471975841        0.7154036648  W2        13431           0.0000000000
     38838     12946  TIP3      H2             25.4355294280        5.8099475841        1.6873636648  W2        13431           0.0000000000
     38839     12947  TIP3      OH2            33.8753094280        8.0564975841        1.0883836648  W2        13433           0.0000000000
     38840     12947  TIP3      H1             33.6017894280        7.6320475841        0.2752136648  W2        13433           0.0000000000
     38841     12947  TIP3      H2             33.9147194280        8.9879475841        0.8714236648  W2        13433           0.0000000000
     38842     12948  TIP3      OH2            23.0427394280        2.7066875841       16.8185236648  W2        13434           0.0000000000
     38843     12948  TIP3      H1             23.1928294280        1.9778175841       16.2164936648  W2        13434           0.0000000000
     38844     12948  TIP3      H2             23.0449794280        3.4838575841       16.2597436648  W2        13434           0.0000000000
     38845     12949  TIP3      OH2            23.4553094280        1.0762675841       14.3112636648  W2        13435           0.0000000000
     38846     12949  TIP3      H1             23.9910594280        1.5279375841       13.6591936648  W2        13435           0.0000000000
     38847     12949  TIP3      H2             22.6032694280        0.9682475841       13.8886736648  W2        13435           0.0000000000
     38848     12950  TIP3      OH2            25.0371494280        6.5158875841       14.5507836648  W2        13436           0.0000000000
     38849     12950  TIP3      H1             25.7876294280        6.3596375841       13.9775636648  W2        13436           0.0000000000
     38850     12950  TIP3      H2             24.6979794280        7.3675475841       14.2753336648  W2        13436           0.0000000000
     38851     12951  TIP3      OH2            30.7694894280        7.1195875841       17.6565836648  W2        13438           0.0000000000
     38852     12951  TIP3      H1             30.4879894280        7.8290475841       17.0789636648  W2        13438           0.0000000000
     38853     12951  TIP3      H2             31.7119194280        7.0468875841       17.5057036648  W2        13438           0.0000000000
     38854     12952  TIP3      OH2            24.2608594280       -1.4671624159       14.7426236648  W2        13440           0.0000000000
     38855     12952  TIP3      H1             24.1628194280       -0.5208424159       14.6372436648  W2        13440           0.0000000000
     38856     12952  TIP3      H2             23.5184794280       -1.8397824159       14.2669736648  W2        13440           0.0000000000
     38857     12953  TIP3      OH2            28.2405694280        1.9817275841       17.3818136648  W2        13442           0.0000000000
     38858     12953  TIP3      H1             27.2931094280        2.0136975841       17.5141436648  W2        13442           0.0000000000
     38859     12953  TIP3      H2             28.5532394280        1.3564375841       18.0356336648  W2        13442           0.0000000000
     38860     12954  TIP3      OH2            24.4826694280       -2.1734224159       17.4139036648  W2        13445           0.0000000000
     38861     12954  TIP3      H1             25.1945094280       -2.8132024159       17.3998136648  W2        13445           0.0000000000
     38862     12954  TIP3      H2             24.3817094280       -1.9065924159       16.5002136648  W2        13445           0.0000000000
     38863     12955  TIP3      OH2            24.3826494280       16.3924475841        2.6439336648  W2        13447           0.0000000000
     38864     12955  TIP3      H1             25.3157194280       16.5503175841        2.7877736648  W2        13447           0.0000000000
     38865     12955  TIP3      H2             24.1185294280       17.0677475841        2.0190836648  W2        13447           0.0000000000
     38866     12956  TIP3      OH2            17.9511394280       11.0288275841        2.1267436648  W2        13448           0.0000000000
     38867     12956  TIP3      H1             18.8650594280       11.1077175841        2.4001336648  W2        13448           0.0000000000
     38868     12956  TIP3      H2             17.9584494280       10.3417875841        1.4603036648  W2        13448           0.0000000000
     38869     12957  TIP3      OH2            16.6001994280       16.4216775841        7.2041336648  W2        13449           0.0000000000
     38870     12957  TIP3      H1             15.9529094280       15.9598475841        6.6712536648  W2        13449           0.0000000000
     38871     12957  TIP3      H2             16.9546594280       15.7500075841        7.7867536648  W2        13449           0.0000000000
     38872     12958  TIP3      OH2            17.4701194280       14.5023775841        9.0087536648  W2        13450           0.0000000000
     38873     12958  TIP3      H1             17.1357994280       13.6221075841        9.1807736648  W2        13450           0.0000000000
     38874     12958  TIP3      H2             17.6923594280       14.8478775841        9.8733136648  W2        13450           0.0000000000
     38875     12959  TIP3      OH2            35.0185994280       15.3120175841       11.9892336648  W2        13451           0.0000000000
     38876     12959  TIP3      H1             34.9972694280       15.4968575841       12.9281736648  W2        13451           0.0000000000
     38877     12959  TIP3      H2             35.7092194280       15.8804175841       11.6483736648  W2        13451           0.0000000000
     38878     12960  TIP3      OH2            34.5818894280       14.8791275841       14.9111436648  W2        13452           0.0000000000
     38879     12960  TIP3      H1             34.0947594280       14.1435375841       14.5398836648  W2        13452           0.0000000000
     38880     12960  TIP3      H2             35.1311594280       14.4855175841       15.5890836648  W2        13452           0.0000000000
     38881     12961  TIP3      OH2            34.3335894280        8.9253075841        5.0634236648  W2        13454           0.0000000000
     38882     12961  TIP3      H1             35.1837294280        9.3463975841        5.1905836648  W2        13454           0.0000000000
     38883     12961  TIP3      H2             34.3390994280        8.1853175841        5.6705636648  W2        13454           0.0000000000
     38884     12962  TIP3      OH2            34.7281494280        6.9790475841        6.8869936648  W2        13455           0.0000000000
     38885     12962  TIP3      H1             34.0016094280        6.4993075841        7.2847536648  W2        13455           0.0000000000
     38886     12962  TIP3      H2             35.3094794280        7.1845175841        7.6191536648  W2        13455           0.0000000000
     38887     12963  TIP3      OH2            34.4872694280        9.7637975841       11.8347536648  W2        13456           0.0000000000
     38888     12963  TIP3      H1             35.3206894280        9.3857975841       11.5541136648  W2        13456           0.0000000000
     38889     12963  TIP3      H2             34.5992994280       10.7069175841       11.7156636648  W2        13456           0.0000000000
     38890     12964  TIP3      OH2            32.9734994280       12.6415475841       14.1415936648  W2        13457           0.0000000000
     38891     12964  TIP3      H1             32.3260294280       12.9666975841       14.7671136648  W2        13457           0.0000000000
     38892     12964  TIP3      H2             32.4558994280       12.2013175841       13.4674236648  W2        13457           0.0000000000
     38893     12965  TIP3      OH2            34.9964594280        6.8798975841        3.2781236648  W2        13458           0.0000000000
     38894     12965  TIP3      H1             34.4745694280        7.2363075841        2.5592136648  W2        13458           0.0000000000
     38895     12965  TIP3      H2             34.9633794280        7.5546775841        3.9562136648  W2        13458           0.0000000000
     38896     12966  TIP3      OH2            33.3453594280        4.1194575841        1.8288336648  W2        13459           0.0000000000
     38897     12966  TIP3      H1             33.4417994280        4.7861575841        1.1488036648  W2        13459           0.0000000000
     38898     12966  TIP3      H2             33.2053194280        3.3040875841        1.3473836648  W2        13459           0.0000000000
     38899     12967  TIP3      OH2            32.5148294280        5.4996975841        7.4498636648  W2        13460           0.0000000000
     38900     12967  TIP3      H1             32.3647094280        4.5545575841        7.4296436648  W2        13460           0.0000000000
     38901     12967  TIP3      H2             32.1612794280        5.7808375841        8.2937736648  W2        13460           0.0000000000
     38902     12968  TIP3      OH2            17.5500694280        7.5779175841       11.4602436648  W2        13461           0.0000000000
     38903     12968  TIP3      H1             17.7343594280        7.4960875841       10.5245336648  W2        13461           0.0000000000
     38904     12968  TIP3      H2             18.3993594280        7.4536175841       11.8838836648  W2        13461           0.0000000000
     38905     12969  TIP3      OH2            33.3711194280        7.4700275841       17.0886936648  W2        13462           0.0000000000
     38906     12969  TIP3      H1             33.9538494280        6.7352575841       17.2804136648  W2        13462           0.0000000000
     38907     12969  TIP3      H2             33.9350494280        8.2420575841       17.1352736648  W2        13462           0.0000000000
     38908     12970  TIP3      OH2            34.8678294280        5.3726075841       17.7732336648  W2        13463           0.0000000000
     38909     12970  TIP3      H1             34.0044994280        4.9938175841       17.6077036648  W2        13463           0.0000000000
     38910     12970  TIP3      H2             35.4721994280        4.6340875841       17.6988136648  W2        13463           0.0000000000
     38911     12971  TIP3      OH2            32.5927394280        1.5274375841        0.9463836648  W2        13464           0.0000000000
     38912     12971  TIP3      H1             33.2033194280        1.1561175841        1.5832036648  W2        13464           0.0000000000
     38913     12971  TIP3      H2             31.7558894280        1.1061275841        1.1423836648  W2        13464           0.0000000000
     38914     12972  TIP3      OH2            32.2253094280        3.0822775841        5.9123736648  W2        13465           0.0000000000
     38915     12972  TIP3      H1             32.5050194280        2.1753175841        6.0365436648  W2        13465           0.0000000000
     38916     12972  TIP3      H2             32.9844794280        3.5164275841        5.5232936648  W2        13465           0.0000000000
     38917     12973  TIP3      OH2            32.8371394280        3.6640175841       11.3482636648  W2        13466           0.0000000000
     38918     12973  TIP3      H1             33.7699394280        3.8760075841       11.3138636648  W2        13466           0.0000000000
     38919     12973  TIP3      H2             32.6018894280        3.7652275841       12.2705636648  W2        13466           0.0000000000
     38920     12974  TIP3      OH2            32.8663294280        4.4005475841       14.1242036648  W2        13467           0.0000000000
     38921     12974  TIP3      H1             32.0234594280        4.6685875841       14.4901836648  W2        13467           0.0000000000
     38922     12974  TIP3      H2             33.3087594280        5.2227375841       13.9133136648  W2        13467           0.0000000000
     38923     12975  TIP3      OH2            17.1475494280        2.8484175841       17.6011236648  W2        13468           0.0000000000
     38924     12975  TIP3      H1             18.0670394280        2.7262475841       17.8374336648  W2        13468           0.0000000000
     38925     12975  TIP3      H2             16.6979994280        2.0983875841       17.9904736648  W2        13468           0.0000000000
     38926     12976  TIP3      OH2            32.8387894280        0.3452075841        5.9605736648  W2        13470           0.0000000000
     38927     12976  TIP3      H1             33.0212894280       -0.1036424159        6.7860736648  W2        13470           0.0000000000
     38928     12976  TIP3      H2             32.2390794280       -0.2393524159        5.4970336648  W2        13470           0.0000000000
     38929     12977  TIP3      OH2            18.3687994280        1.1605775841       10.4924136648  W2        13471           0.0000000000
     38930     12977  TIP3      H1             18.8139594280        0.3688275841       10.7943836648  W2        13471           0.0000000000
     38931     12977  TIP3      H2             18.8350994280        1.8770975841       10.9229736648  W2        13471           0.0000000000
     38932     12978  TIP3      OH2            16.6728294280        4.1598775841       11.5614336648  W2        13472           0.0000000000
     38933     12978  TIP3      H1             17.1648094280        3.9389275841       10.7706336648  W2        13472           0.0000000000
     38934     12978  TIP3      H2             17.0349194280        5.0002175841       11.8423836648  W2        13472           0.0000000000
     38935     12979  TIP3      OH2            34.7054094280        0.4130175841        2.4886036648  W2        13474           0.0000000000
     38936     12979  TIP3      H1             35.1176694280       -0.3084124159        2.0134036648  W2        13474           0.0000000000
     38937     12979  TIP3      H2             35.3870594280        1.0824775841        2.5470336648  W2        13474           0.0000000000
     38938     12980  TIP3      OH2            16.9864794280        0.4177875841        5.6156736648  W2        13475           0.0000000000
     38939     12980  TIP3      H1             16.0613194280        0.6264475841        5.4862236648  W2        13475           0.0000000000
     38940     12980  TIP3      H2             17.4404694280        0.9018675841        4.9259036648  W2        13475           0.0000000000
     38941     12981  TIP3      OH2            31.7571994280       15.4019575841        7.5614136648  W2        13476           0.0000000000
     38942     12981  TIP3      H1             32.4094894280       15.0541675841        6.9533236648  W2        13476           0.0000000000
     38943     12981  TIP3      H2             32.2675794280       15.8902775841        8.2073836648  W2        13476           0.0000000000
     38944     12982  TIP3      OH2            16.9500194280       -0.8443124159       13.9599236648  W2        13477           0.0000000000
     38945     12982  TIP3      H1             16.2850694280       -1.0902824159       14.6030136648  W2        13477           0.0000000000
     38946     12982  TIP3      H2             16.5071494280       -0.2222724159       13.3827236648  W2        13477           0.0000000000
     38947     12983  TIP3      OH2            22.0962394280       13.3052175841       14.3629036648  W2        13479           0.0000000000
     38948     12983  TIP3      H1             21.6713494280       14.1150675841       14.0803636648  W2        13479           0.0000000000
     38949     12983  TIP3      H2             23.0005194280       13.3906275841       14.0608836648  W2        13479           0.0000000000
     38950     12984  TIP3      OH2            26.4073794280       14.7042175841       17.3222736648  W2        13480           0.0000000000
     38951     12984  TIP3      H1             26.5921294280       14.3708275841       18.2003036648  W2        13480           0.0000000000
     38952     12984  TIP3      H2             27.2538294280       15.0140775841       17.0001936648  W2        13480           0.0000000000
     38953     12985  TIP3      OH2            28.7524194280       15.9901075841       16.5664136648  W2        13481           0.0000000000
     38954     12985  TIP3      H1             29.4293094280       15.3573375841       16.3263336648  W2        13481           0.0000000000
     38955     12985  TIP3      H2             29.0742994280       16.3911575841       17.3737436648  W2        13481           0.0000000000
     38956     12986  TIP3      OH2            33.6697994280       -1.4203424159       15.6459136648  W2        13482           0.0000000000
     38957     12986  TIP3      H1             32.8571494280       -1.0953124159       15.2583836648  W2        13482           0.0000000000
     38958     12986  TIP3      H2             33.9026494280       -2.1804924159       15.1128236648  W2        13482           0.0000000000
     38959     12987  TIP3      OH2            19.4979094280       16.5616075841       14.4104336648  W2        13483           0.0000000000
     38960     12987  TIP3      H1             18.7775494280       17.0017075841       13.9592036648  W2        13483           0.0000000000
     38961     12987  TIP3      H2             19.1323094280       16.3110775841       15.2588336648  W2        13483           0.0000000000
     38962     12988  TIP3      OH2            21.9651694280       16.1619975841       13.4401536648  W2        13484           0.0000000000
     38963     12988  TIP3      H1             21.1003894280       16.2338475841       13.8441636648  W2        13484           0.0000000000
     38964     12988  TIP3      H2             21.9100694280       16.7087275841       12.6564036648  W2        13484           0.0000000000
     38965     12989  TIP3      OH2            26.6757294280       16.0498875841       12.6157536648  W2        13485           0.0000000000
     38966     12989  TIP3      H1             26.2191294280       16.5788575841       11.9615936648  W2        13485           0.0000000000
     38967     12989  TIP3      H2             26.8385294280       16.6530275841       13.3409836648  W2        13485           0.0000000000
     38968     12990  TIP3      OH2            29.0033594280       14.9278475841       13.5607836648  W2        13486           0.0000000000
     38969     12990  TIP3      H1             28.0987294280       15.0928675841       13.2949936648  W2        13486           0.0000000000
     38970     12990  TIP3      H2             29.4322194280       15.7810675841       13.4951236648  W2        13486           0.0000000000
     38971     12991  TIP3      OH2            31.6075494280       16.4977575841       13.8555636648  W2        13487           0.0000000000
     38972     12991  TIP3      H1             31.4257494280       17.4136475841       13.6450536648  W2        13487           0.0000000000
     38973     12991  TIP3      H2             31.7843294280       16.0874675841       13.0090236648  W2        13487           0.0000000000
     38974     12992  TIP3      OH2            18.9127194280       15.1848575841       11.3206136648  W2        13488           0.0000000000
     38975     12992  TIP3      H1             18.8943194280       14.7593675841       12.1778436648  W2        13488           0.0000000000
     38976     12992  TIP3      H2             19.7175094280       14.8663575841       10.9118336648  W2        13488           0.0000000000
     38977     12993  TIP3      OH2            21.0540294280       13.8947275841        9.9756036648  W2        13489           0.0000000000
     38978     12993  TIP3      H1             20.8350994280       12.9784675841       10.1452036648  W2        13489           0.0000000000
     38979     12993  TIP3      H2             21.8782494280       14.0347675841       10.4417436648  W2        13489           0.0000000000
     38980     12994  TIP3      OH2            23.5912794280       14.3646575841       10.8244036648  W2        13490           0.0000000000
     38981     12994  TIP3      H1             23.8038494280       13.4765575841       10.5374936648  W2        13490           0.0000000000
     38982     12994  TIP3      H2             23.6557894280       14.3304275841       11.7788036648  W2        13490           0.0000000000
     38983     12995  TIP3      OH2            27.0996494280        0.0287175841        9.9687336648  W2        13491           0.0000000000
     38984     12995  TIP3      H1             26.4253294280       -0.6007224159       10.2243136648  W2        13491           0.0000000000
     38985     12995  TIP3      H2             27.6635694280       -0.4553924159        9.3655236648  W2        13491           0.0000000000
     38986     12996  TIP3      OH2            32.2423694280       -1.8638824159       10.0814436648  W2        13492           0.0000000000
     38987     12996  TIP3      H1             32.8461294280       -1.3163424159        9.5795436648  W2        13492           0.0000000000
     38988     12996  TIP3      H2             31.3725694280       -1.5448424159        9.8408536648  W2        13492           0.0000000000
     38989     12997  TIP3      OH2            33.9694094280       -0.7250124159        8.4145336648  W2        13493           0.0000000000
     38990     12997  TIP3      H1             34.5811594280       -1.2394424159        7.8878936648  W2        13493           0.0000000000
     38991     12997  TIP3      H2             34.3517494280        0.1521975841        8.4379736648  W2        13493           0.0000000000
     38992     12998  TIP3      OH2            19.4263994280       -1.3372524159        7.7907236648  W2        13494           0.0000000000
     38993     12998  TIP3      H1             18.6493794280       -1.5717624159        7.2833136648  W2        13494           0.0000000000
     38994     12998  TIP3      H2             19.9567594280       -2.1340424159        7.7995236648  W2        13494           0.0000000000
     38995     12999  TIP3      OH2            18.2627394280       -1.5394424159        3.5943336648  W2        13495           0.0000000000
     38996     12999  TIP3      H1             18.7018094280       -0.9283924159        3.0026836648  W2        13495           0.0000000000
     38997     12999  TIP3      H2             17.6289794280       -1.0010324159        4.0683336648  W2        13495           0.0000000000
     38998     13000  TIP3      OH2            24.0056594280       -1.4105424159        7.6040336648  W2        13496           0.0000000000
     38999     13000  TIP3      H1             24.8799994280       -1.0221124159        7.5744636648  W2        13496           0.0000000000
     39000     13000  TIP3      H2             23.8697394280       -1.6257624159        8.5267536648  W2        13496           0.0000000000
     39001     13001  TIP3      OH2            29.5624994280       -1.3805624159        9.2532036648  W2        13497           0.0000000000
     39002     13001  TIP3      H1             29.6386594280       -1.2854024159        8.3038036648  W2        13497           0.0000000000
     39003     13001  TIP3      H2             29.2874194280       -2.2882724159        9.3821136648  W2        13497           0.0000000000
     39004     13002  TIP3      OH2            30.9157594280       -1.3547824159        4.9457036648  W2        13498           0.0000000000
     39005     13002  TIP3      H1             30.2128694280       -0.7398624159        4.7358436648  W2        13498           0.0000000000
     39006     13002  TIP3      H2             30.4708994280       -2.1921124159        5.0767936648  W2        13498           0.0000000000
     39007     13003  TIP3      OH2            18.1636894280       14.4087775841        4.4918436648  W2        13499           0.0000000000
     39008     13003  TIP3      H1             17.4786794280       14.3706675841        3.8243536648  W2        13499           0.0000000000
     39009     13003  TIP3      H2             18.1674094280       15.3215375841        4.7800536648  W2        13499           0.0000000000
     39010     13004  TIP3      OH2            20.1236494280        0.3767075841        2.0367436648  W2        13500           0.0000000000
     39011     13004  TIP3      H1             20.6149894280       -0.2530524159        1.5092936648  W2        13500           0.0000000000
     39012     13004  TIP3      H2             20.7472794280        0.6726475841        2.6998636648  W2        13500           0.0000000000
     39013     13005  TIP3      OH2            25.1496594280        0.6698575841        4.4937936648  W2        13501           0.0000000000
     39014     13005  TIP3      H1             25.3277894280        0.0231775841        5.1766536648  W2        13501           0.0000000000
     39015     13005  TIP3      H2             25.0962794280        1.5036275841        4.9609036648  W2        13501           0.0000000000
     39016     13006  TIP3      OH2            27.0280394280       15.6182675841        2.8894636648  W2        13502           0.0000000000
     39017     13006  TIP3      H1             27.8940594280       15.9850075841        2.7112836648  W2        13502           0.0000000000
     39018     13006  TIP3      H2             26.7813194280       15.1790675841        2.0755436648  W2        13502           0.0000000000
     39019     13007  TIP3      OH2            33.7369994280       15.1812975841        5.5685736648  W2        13503           0.0000000000
     39020     13007  TIP3      H1             33.5427094280       14.4335075841        5.0035336648  W2        13503           0.0000000000
     39021     13007  TIP3      H2             33.6980094280       15.9393075841        4.9853636648  W2        13503           0.0000000000
     39022     13008  TIP3      OH2            19.3841994280       -0.8230624159       17.3083436648  W2        13504           0.0000000000
     39023     13008  TIP3      H1             19.0180194280       -1.5888024159       17.7508136648  W2        13504           0.0000000000
     39024     13008  TIP3      H2             20.2970494280       -0.7940424159       17.5948536648  W2        13504           0.0000000000
     39025     13009  TIP3      OH2            19.9818094280       15.3288575841        1.5170536648  W2        13506           0.0000000000
     39026     13009  TIP3      H1             19.7142694280       15.6151475841        2.3903636648  W2        13506           0.0000000000
     39027     13009  TIP3      H2             20.7530694280       14.7827775841        1.6693036648  W2        13506           0.0000000000
     39028     13010  TIP3      OH2            32.9546194280       13.9325375841       17.7187536648  W2        13508           0.0000000000
     39029     13010  TIP3      H1             32.1728094280       13.7463375841       17.1988136648  W2        13508           0.0000000000
     39030     13010  TIP3      H2             32.8826094280       14.8619675841       17.9360036648  W2        13508           0.0000000000
     39031     13011  TIP3      OH2            47.3606594280        7.8189775841        7.7494736648  W2        13509           0.0000000000
     39032     13011  TIP3      H1             47.4497694280        8.7627975841        7.6171836648  W2        13509           0.0000000000
     39033     13011  TIP3      H2             46.7224194280        7.5436175841        7.0914136648  W2        13509           0.0000000000
     39034     13012  TIP3      OH2            46.2937894280        7.0740475841       11.1682936648  W2        13510           0.0000000000
     39035     13012  TIP3      H1             46.2555394280        6.4276775841       11.8732536648  W2        13510           0.0000000000
     39036     13012  TIP3      H2             45.9714394280        6.6074875841       10.3971636648  W2        13510           0.0000000000
     39037     13013  TIP3      OH2            38.6622894280        6.6882575841       12.7612836648  W2        13511           0.0000000000
     39038     13013  TIP3      H1             38.7034994280        6.0625875841       13.4845236648  W2        13511           0.0000000000
     39039     13013  TIP3      H2             39.3650594280        7.3121175841       12.9433236648  W2        13511           0.0000000000
     39040     13014  TIP3      OH2            49.9998094280       10.0130875841        9.4698036648  W2        13512           0.0000000000
     39041     13014  TIP3      H1             49.5590794280        9.2926875841        9.9203636648  W2        13512           0.0000000000
     39042     13014  TIP3      H2             49.9867794280       10.7338075841       10.0995736648  W2        13512           0.0000000000
     39043     13015  TIP3      OH2            39.5855994280       11.1381475841       11.2961936648  W2        13513           0.0000000000
     39044     13015  TIP3      H1             39.2161194280       10.3361975841       10.9266236648  W2        13513           0.0000000000
     39045     13015  TIP3      H2             40.5267094280       10.9696375841       11.3425336648  W2        13513           0.0000000000
     39046     13016  TIP3      OH2            36.1956494280        4.7984075841        6.6890736648  W2        13514           0.0000000000
     39047     13016  TIP3      H1             35.7479894280        5.6442775841        6.6707236648  W2        13514           0.0000000000
     39048     13016  TIP3      H2             35.6347694280        4.2188275841        6.1735836648  W2        13514           0.0000000000
     39049     13017  TIP3      OH2            36.9062594280        6.9603675841        8.8148736648  W2        13515           0.0000000000
     39050     13017  TIP3      H1             37.1196094280        6.1905275841        9.3421736648  W2        13515           0.0000000000
     39051     13017  TIP3      H2             37.6440194280        7.0500375841        8.2116336648  W2        13515           0.0000000000
     39052     13018  TIP3      OH2            47.1113594280       15.1172575841        9.6818436648  W2        13516           0.0000000000
     39053     13018  TIP3      H1             47.7309994280       14.4407275841        9.4087636648  W2        13516           0.0000000000
     39054     13018  TIP3      H2             46.9030994280       14.8993375841       10.5903336648  W2        13516           0.0000000000
     39055     13019  TIP3      OH2            44.6832294280        9.5061875841       11.5743936648  W2        13517           0.0000000000
     39056     13019  TIP3      H1             44.9870194280        8.8203275841       10.9798036648  W2        13517           0.0000000000
     39057     13019  TIP3      H2             45.4046294280        9.6250575841       12.1921936648  W2        13517           0.0000000000
     39058     13020  TIP3      OH2            53.3462094280        1.1077175841       12.4350136648  W2        13518           0.0000000000
     39059     13020  TIP3      H1             53.3954294280        1.7178375841       13.1709236648  W2        13518           0.0000000000
     39060     13020  TIP3      H2             53.7717194280        1.5688075841       11.7121236648  W2        13518           0.0000000000
     39061     13021  TIP3      OH2            47.8239294280        3.9004275841       11.9018736648  W2        13519           0.0000000000
     39062     13021  TIP3      H1             47.9665194280        2.9541275841       11.9220336648  W2        13519           0.0000000000
     39063     13021  TIP3      H2             47.7178294280        4.1074075841       10.9733636648  W2        13519           0.0000000000
     39064     13022  TIP3      OH2            40.9787594280        2.0020675841        9.1743536648  W2        13520           0.0000000000
     39065     13022  TIP3      H1             41.0218694280        2.8619175841        8.7559836648  W2        13520           0.0000000000
     39066     13022  TIP3      H2             40.5211694280        1.4495375841        8.5406736648  W2        13520           0.0000000000
     39067     13023  TIP3      OH2            48.7010294280        2.1326275841        7.5751836648  W2        13521           0.0000000000
     39068     13023  TIP3      H1             49.3474594280        1.8039475841        8.1999436648  W2        13521           0.0000000000
     39069     13023  TIP3      H2             49.2109694280        2.6505275841        6.9523236648  W2        13521           0.0000000000
     39070     13024  TIP3      OH2            37.5989094280        4.3986475841        9.9364936648  W2        13522           0.0000000000
     39071     13024  TIP3      H1             38.2525694280        3.8488175841       10.3685036648  W2        13522           0.0000000000
     39072     13024  TIP3      H2             37.6228394280        4.1245475841        9.0196936648  W2        13522           0.0000000000
     39073     13025  TIP3      OH2            42.7553594280        5.9487775841        9.1516436648  W2        13523           0.0000000000
     39074     13025  TIP3      H1             43.3714594280        5.4223175841        9.6610436648  W2        13523           0.0000000000
     39075     13025  TIP3      H2             42.1692394280        5.3086475841        8.7480036648  W2        13523           0.0000000000
     39076     13026  TIP3      OH2            53.7376694280        2.5856375841       14.6709936648  W2        13524           0.0000000000
     39077     13026  TIP3      H1             53.0491294280        3.2437075841       14.5756536648  W2        13524           0.0000000000
     39078     13026  TIP3      H2             53.7531294280        2.3884275841       15.6075336648  W2        13524           0.0000000000
     39079     13027  TIP3      OH2            39.7889494280        0.9199075841       13.2484336648  W2        13525           0.0000000000
     39080     13027  TIP3      H1             39.5701194280        1.4499675841       12.4820336648  W2        13525           0.0000000000
     39081     13027  TIP3      H2             39.1210394280        1.1464575841       13.8955736648  W2        13525           0.0000000000
     39082     13028  TIP3      OH2            47.1579294280       10.4200175841        6.7923436648  W2        13526           0.0000000000
     39083     13028  TIP3      H1             46.8624394280       10.0972475841        5.9410336648  W2        13526           0.0000000000
     39084     13028  TIP3      H2             46.8337094280       11.3196875841        6.8336036648  W2        13526           0.0000000000
     39085     13029  TIP3      OH2            42.3580894280        8.5954775841       13.5358036648  W2        13527           0.0000000000
     39086     13029  TIP3      H1             41.6179994280        9.1936275841       13.6393236648  W2        13527           0.0000000000
     39087     13029  TIP3      H2             43.0720394280        9.1494375841       13.2201636648  W2        13527           0.0000000000
     39088     13030  TIP3      OH2            50.4648694280        1.4235575841        9.5557736648  W2        13528           0.0000000000
     39089     13030  TIP3      H1             50.2496694280        0.6578975841       10.0883736648  W2        13528           0.0000000000
     39090     13030  TIP3      H2             51.1206094280        1.8960175841       10.0686236648  W2        13528           0.0000000000
     39091     13031  TIP3      OH2            39.3826794280        2.8120875841       11.2006536648  W2        13529           0.0000000000
     39092     13031  TIP3      H1             39.9963094280        3.4448475841       11.5738936648  W2        13529           0.0000000000
     39093     13031  TIP3      H2             39.8947494280        2.3395875841       10.5443436648  W2        13529           0.0000000000
     39094     13032  TIP3      OH2            40.7655194280       10.5597775841       14.3229536648  W2        13530           0.0000000000
     39095     13032  TIP3      H1             40.7602794280       11.4391275841       13.9448836648  W2        13530           0.0000000000
     39096     13032  TIP3      H2             39.9119294280       10.4761875841       14.7479436648  W2        13530           0.0000000000
     39097     13033  TIP3      OH2            36.8866094280       10.2305675841        5.1048836648  W2        13531           0.0000000000
     39098     13033  TIP3      H1             36.6146994280       10.4596675841        4.2161736648  W2        13531           0.0000000000
     39099     13033  TIP3      H2             36.9321794280       11.0684475841        5.5654136648  W2        13531           0.0000000000
     39100     13034  TIP3      OH2            50.5115794280       11.8521575841       11.8177336648  W2        13532           0.0000000000
     39101     13034  TIP3      H1             49.5699494280       11.9105475841       11.9794236648  W2        13532           0.0000000000
     39102     13034  TIP3      H2             50.7881894280       12.7582075841       11.6807036648  W2        13532           0.0000000000
     39103     13035  TIP3      OH2            50.8122794280        0.1386875841       13.2351236648  W2        13533           0.0000000000
     39104     13035  TIP3      H1             50.0761994280        0.7493975841       13.1972536648  W2        13533           0.0000000000
     39105     13035  TIP3      H2             51.4956794280        0.5535875841       12.7087636648  W2        13533           0.0000000000
     39106     13036  TIP3      OH2            43.8154194280       -1.7745824159       10.7009236648  W2        13534           0.0000000000
     39107     13036  TIP3      H1             43.6978394280       -2.7229824159       10.6467536648  W2        13534           0.0000000000
     39108     13036  TIP3      H2             42.9604294280       -1.4419724159       10.9740336648  W2        13534           0.0000000000
     39109     13037  TIP3      OH2            48.7636994280       13.6335075841        8.4428936648  W2        13535           0.0000000000
     39110     13037  TIP3      H1             49.1889294280       12.9262975841        7.9578536648  W2        13535           0.0000000000
     39111     13037  TIP3      H2             49.0806994280       14.4347775841        8.0261136648  W2        13535           0.0000000000
     39112     13038  TIP3      OH2            49.9233494280       11.5343575841        6.9515536648  W2        13536           0.0000000000
     39113     13038  TIP3      H1             49.6658294280       10.8443675841        6.3401436648  W2        13536           0.0000000000
     39114     13038  TIP3      H2             49.9944294280       11.0914775841        7.7971436648  W2        13536           0.0000000000
     39115     13039  TIP3      OH2            51.6093694280       10.1010275841       15.4289036648  W2        13537           0.0000000000
     39116     13039  TIP3      H1             51.7489994280        9.5092775841       14.6896036648  W2        13537           0.0000000000
     39117     13039  TIP3      H2             51.7766494280       10.9736175841       15.0727836648  W2        13537           0.0000000000
     39118     13040  TIP3      OH2            46.0819094280        7.0629775841        5.2015036648  W2        13538           0.0000000000
     39119     13040  TIP3      H1             45.3704594280        7.5979475841        4.8495536648  W2        13538           0.0000000000
     39120     13040  TIP3      H2             46.7728694280        7.1181875841        4.5413936648  W2        13538           0.0000000000
     39121     13041  TIP3      OH2            46.1358294280        5.5204075841        2.2400036648  W2        13539           0.0000000000
     39122     13041  TIP3      H1             46.8368194280        5.5430975841        2.8914036648  W2        13539           0.0000000000
     39123     13041  TIP3      H2             46.4381194280        4.8923775841        1.5839336648  W2        13539           0.0000000000
     39124     13042  TIP3      OH2            53.4512994280        6.4408275841       13.4949436648  W2        13540           0.0000000000
     39125     13042  TIP3      H1             52.7987094280        7.1353875841       13.5840336648  W2        13540           0.0000000000
     39126     13042  TIP3      H2             53.9163294280        6.6509175841       12.6851036648  W2        13540           0.0000000000
     39127     13043  TIP3      OH2            49.4876794280        7.2723075841        6.1530936648  W2        13541           0.0000000000
     39128     13043  TIP3      H1             48.7557794280        7.5006775841        6.7261536648  W2        13541           0.0000000000
     39129     13043  TIP3      H2             49.9348994280        6.5585775841        6.6078436648  W2        13541           0.0000000000
     39130     13044  TIP3      OH2            49.3850294280        5.4465675841       15.2207936648  W2        13542           0.0000000000
     39131     13044  TIP3      H1             49.4649394280        6.2100075841       15.7926436648  W2        13542           0.0000000000
     39132     13044  TIP3      H2             48.7837994280        5.7258075841       14.5303036648  W2        13542           0.0000000000
     39133     13045  TIP3      OH2            41.1330494280        7.9029275841        8.0355936648  W2        13543           0.0000000000
     39134     13045  TIP3      H1             40.8025694280        7.5322675841        7.2172936648  W2        13543           0.0000000000
     39135     13045  TIP3      H2             41.7214594280        7.2323275841        8.3824236648  W2        13543           0.0000000000
     39136     13046  TIP3      OH2            42.4997994280       11.3309875841       10.7168136648  W2        13544           0.0000000000
     39137     13046  TIP3      H1             42.4049294280       10.7522975841        9.9602736648  W2        13544           0.0000000000
     39138     13046  TIP3      H2             43.2291594280       10.9595575841       11.2130936648  W2        13544           0.0000000000
     39139     13047  TIP3      OH2            41.4995994280        6.6714875841       11.6690936648  W2        13545           0.0000000000
     39140     13047  TIP3      H1             42.0648494280        6.7929075841       10.9062136648  W2        13545           0.0000000000
     39141     13047  TIP3      H2             41.8184894280        7.3089875841       12.3079436648  W2        13545           0.0000000000
     39142     13048  TIP3      OH2            47.8088194280       12.1746775841       12.4031436648  W2        13546           0.0000000000
     39143     13048  TIP3      H1             47.5684794280       12.8369875841       13.0510636648  W2        13546           0.0000000000
     39144     13048  TIP3      H2             47.6106394280       11.3401975841       12.8281036648  W2        13546           0.0000000000
     39145     13049  TIP3      OH2            42.3796694280       11.0707575841       16.3862836648  W2        13547           0.0000000000
     39146     13049  TIP3      H1             42.0684194280       11.8530775841       16.8416036648  W2        13547           0.0000000000
     39147     13049  TIP3      H2             41.7296894280       10.9176675841       15.7004836648  W2        13547           0.0000000000
     39148     13050  TIP3      OH2            48.3586294280        6.4345975841        3.8382136648  W2        13548           0.0000000000
     39149     13050  TIP3      H1             48.9381794280        6.5846275841        4.5851036648  W2        13548           0.0000000000
     39150     13050  TIP3      H2             48.7726294280        6.9053375841        3.1148536648  W2        13548           0.0000000000
     39151     13051  TIP3      OH2            39.2996594280        7.2688675841       15.6148536648  W2        13549           0.0000000000
     39152     13051  TIP3      H1             39.3699794280        7.9195475841       16.3133536648  W2        13549           0.0000000000
     39153     13051  TIP3      H2             38.4088794280        7.3716175841       15.2799436648  W2        13549           0.0000000000
     39154     13052  TIP3      OH2            46.0851194280       13.1714475841        7.2735236648  W2        13550           0.0000000000
     39155     13052  TIP3      H1             46.5588794280       13.4670775841        8.0509436648  W2        13550           0.0000000000
     39156     13052  TIP3      H2             45.5220494280       13.9096075841        7.0404836648  W2        13550           0.0000000000
     39157     13053  TIP3      OH2            40.6192594280       13.1422575841       17.1496636648  W2        13551           0.0000000000
     39158     13053  TIP3      H1             40.6267894280       13.0062275841       16.2022136648  W2        13551           0.0000000000
     39159     13053  TIP3      H2             39.7032994280       13.0250675841       17.4016636648  W2        13551           0.0000000000
     39160     13054  TIP3      OH2            52.0574694280       -1.8153624159        3.6511836648  W2        13552           0.0000000000
     39161     13054  TIP3      H1             51.1575394280       -1.6764624159        3.9462436648  W2        13552           0.0000000000
     39162     13054  TIP3      H2             52.3093094280       -0.9839024159        3.2493536648  W2        13552           0.0000000000
     39163     13055  TIP3      OH2            40.1233194280        6.9723575841        5.6248736648  W2        13553           0.0000000000
     39164     13055  TIP3      H1             39.8314494280        7.7405275841        5.1340036648  W2        13553           0.0000000000
     39165     13055  TIP3      H2             39.4488394280        6.3129775841        5.4620136648  W2        13553           0.0000000000
     39166     13056  TIP3      OH2            53.2466094280       12.5508775841        2.0275736648  W2        13554           0.0000000000
     39167     13056  TIP3      H1             53.3199594280       13.4898975841        2.1981036648  W2        13554           0.0000000000
     39168     13056  TIP3      H2             54.1521194280       12.2457375841        1.9713036648  W2        13554           0.0000000000
     39169     13057  TIP3      OH2            36.2163294280        9.3352775841       14.4398536648  W2        13555           0.0000000000
     39170     13057  TIP3      H1             35.7151694280        9.3072175841       13.6248236648  W2        13555           0.0000000000
     39171     13057  TIP3      H2             36.2216994280        8.4295975841       14.7495836648  W2        13555           0.0000000000
     39172     13058  TIP3      OH2            35.9665994280       12.1156575841       11.3238736648  W2        13556           0.0000000000
     39173     13058  TIP3      H1             36.9126594280       11.9713575841       11.3048236648  W2        13556           0.0000000000
     39174     13058  TIP3      H2             35.8542294280       12.8999375841       11.8609936648  W2        13556           0.0000000000
     39175     13059  TIP3      OH2            54.1644494280       12.7816275841       17.0062436648  W2        13557           0.0000000000
     39176     13059  TIP3      H1             54.1151294280       11.8264375841       16.9690036648  W2        13557           0.0000000000
     39177     13059  TIP3      H2             53.3376794280       13.0491575841       17.4076236648  W2        13557           0.0000000000
     39178     13060  TIP3      OH2            45.1428494280       12.3555475841       15.8823836648  W2        13558           0.0000000000
     39179     13060  TIP3      H1             45.2303094280       13.1820075841       16.3572936648  W2        13558           0.0000000000
     39180     13060  TIP3      H2             44.2793594280       12.0259275841       16.1313136648  W2        13558           0.0000000000
     39181     13061  TIP3      OH2            45.5574294280       16.1279175841        5.6884436648  W2        13559           0.0000000000
     39182     13061  TIP3      H1             45.4820294280       16.0066375841        4.7419636648  W2        13559           0.0000000000
     39183     13061  TIP3      H2             45.5902994280       17.0771875841        5.8069036648  W2        13559           0.0000000000
     39184     13062  TIP3      OH2            39.2108094280       14.9166175841        7.4693436648  W2        13560           0.0000000000
     39185     13062  TIP3      H1             39.3628494280       14.5686575841        8.3479936648  W2        13560           0.0000000000
     39186     13062  TIP3      H2             38.3598494280       14.5603475841        7.2140636648  W2        13560           0.0000000000
     39187     13063  TIP3      OH2            48.6590294280       15.2819375841        2.6906836648  W2        13561           0.0000000000
     39188     13063  TIP3      H1             49.0338694280       14.5375475841        2.2199436648  W2        13561           0.0000000000
     39189     13063  TIP3      H2             48.6633994280       15.0119975841        3.6090136648  W2        13561           0.0000000000
     39190     13064  TIP3      OH2            48.3278394280       15.2076475841        5.4399036648  W2        13562           0.0000000000
     39191     13064  TIP3      H1             47.3928194280       15.3078375841        5.6186036648  W2        13562           0.0000000000
     39192     13064  TIP3      H2             48.6080294280       14.4982475841        6.0182236648  W2        13562           0.0000000000
     39193     13065  TIP3      OH2            51.3164294280        4.2748775841       17.4864636648  W2        13563           0.0000000000
     39194     13065  TIP3      H1             50.9091094280        4.7554375841       16.7657936648  W2        13563           0.0000000000
     39195     13065  TIP3      H2             51.3569994280        3.3694775841       17.1785436648  W2        13563           0.0000000000
     39196     13066  TIP3      OH2            38.4653794280       10.6588175841       15.4831336648  W2        13564           0.0000000000
     39197     13066  TIP3      H1             38.6815094280       10.2973775841       16.3427136648  W2        13564           0.0000000000
     39198     13066  TIP3      H2             37.6098494280       10.2841975841       15.2734836648  W2        13564           0.0000000000
     39199     13067  TIP3      OH2            41.0841794280       -0.8711324159       11.4785536648  W2        13565           0.0000000000
     39200     13067  TIP3      H1             40.2225494280       -0.9583124159       11.0708436648  W2        13565           0.0000000000
     39201     13067  TIP3      H2             41.0617494280       -0.0151224159       11.9063136648  W2        13565           0.0000000000
     39202     13068  TIP3      OH2            45.7469594280       -1.1490924159       14.8532536648  W2        13566           0.0000000000
     39203     13068  TIP3      H1             46.1672694280       -1.5643824159       15.6063136648  W2        13566           0.0000000000
     39204     13068  TIP3      H2             44.8139194280       -1.3277624159       14.9704536648  W2        13566           0.0000000000
     39205     13069  TIP3      OH2            49.0734494280        2.6064275841       15.7067036648  W2        13567           0.0000000000
     39206     13069  TIP3      H1             48.5593994280        2.4806475841       16.5043036648  W2        13567           0.0000000000
     39207     13069  TIP3      H2             48.9179194280        3.5187375841       15.4623236648  W2        13567           0.0000000000
     39208     13070  TIP3      OH2            49.8359394280        7.4674275841        1.4680036648  W2        13568           0.0000000000
     39209     13070  TIP3      H1             49.8780194280        7.2448175841        0.5380036648  W2        13568           0.0000000000
     39210     13070  TIP3      H2             50.6851494280        7.8661375841        1.6579936648  W2        13568           0.0000000000
     39211     13071  TIP3      OH2            45.4086894280        1.3432475841        2.1383336648  W2        13569           0.0000000000
     39212     13071  TIP3      H1             45.1551694280        1.3624075841        3.0611436648  W2        13569           0.0000000000
     39213     13071  TIP3      H2             45.1518994280        0.4717875841        1.8369536648  W2        13569           0.0000000000
     39214     13072  TIP3      OH2            41.1751894280        4.0943175841       12.5735736648  W2        13570           0.0000000000
     39215     13072  TIP3      H1             40.5333994280        4.0540475841       13.2825836648  W2        13570           0.0000000000
     39216     13072  TIP3      H2             41.2123894280        5.0207875841       12.3358736648  W2        13570           0.0000000000
     39217     13073  TIP3      OH2            41.1720994280        4.3153275841        7.4855736648  W2        13571           0.0000000000
     39218     13073  TIP3      H1             40.2793894280        3.9749375841        7.4269536648  W2        13571           0.0000000000
     39219     13073  TIP3      H2             41.6227594280        3.9384175841        6.7298936648  W2        13571           0.0000000000
     39220     13074  TIP3      OH2            46.7076494280        4.7313575841        6.3026536648  W2        13572           0.0000000000
     39221     13074  TIP3      H1             46.2986794280        5.5462175841        6.0111336648  W2        13572           0.0000000000
     39222     13074  TIP3      H2             47.4282694280        4.5913675841        5.6883636648  W2        13572           0.0000000000
     39223     13075  TIP3      OH2            45.8098094280        4.9069975841       17.7907236648  W2        13573           0.0000000000
     39224     13075  TIP3      H1             45.2471894280        4.2021575841       18.1115036648  W2        13573           0.0000000000
     39225     13075  TIP3      H2             46.6361494280        4.7861875841       18.2584836648  W2        13573           0.0000000000
     39226     13076  TIP3      OH2            47.7124194280        4.1773975841        9.1166236648  W2        13574           0.0000000000
     39227     13076  TIP3      H1             47.5168694280        4.7830775841        8.4016836648  W2        13574           0.0000000000
     39228     13076  TIP3      H2             47.8936794280        3.3439175841        8.6822536648  W2        13574           0.0000000000
     39229     13077  TIP3      OH2            38.9252394280        4.4146675841       14.4407736648  W2        13575           0.0000000000
     39230     13077  TIP3      H1             38.8871794280        4.8148275841       15.3094836648  W2        13575           0.0000000000
     39231     13077  TIP3      H2             38.4343494280        3.5979075841       14.5310636648  W2        13575           0.0000000000
     39232     13078  TIP3      OH2            42.2909794280        1.7888975841        1.2393736648  W2        13576           0.0000000000
     39233     13078  TIP3      H1             41.8600494280        1.3439075841        1.9691136648  W2        13576           0.0000000000
     39234     13078  TIP3      H2             41.5728494280        2.1605275841        0.7271236648  W2        13576           0.0000000000
     39235     13079  TIP3      OH2            35.5333194280        1.5308475841        8.2912436648  W2        13577           0.0000000000
     39236     13079  TIP3      H1             36.1640894280        1.5020575841        9.0106336648  W2        13577           0.0000000000
     39237     13079  TIP3      H2             35.9827494280        1.1057175841        7.5608336648  W2        13577           0.0000000000
     39238     13080  TIP3      OH2            36.8075294280        2.2770475841        3.7152836648  W2        13578           0.0000000000
     39239     13080  TIP3      H1             37.2816994280        2.8680375841        3.1303736648  W2        13578           0.0000000000
     39240     13080  TIP3      H2             36.0901694280        2.8073375841        4.0622936648  W2        13578           0.0000000000
     39241     13081  TIP3      OH2            46.9763394280        5.8155275841       13.7878636648  W2        13579           0.0000000000
     39242     13081  TIP3      H1             47.2998194280        5.1844975841       13.1449136648  W2        13579           0.0000000000
     39243     13081  TIP3      H2             46.5362694280        5.2807475841       14.4486036648  W2        13579           0.0000000000
     39244     13082  TIP3      OH2            43.7536294280        1.7430775841        8.5719836648  W2        13580           0.0000000000
     39245     13082  TIP3      H1             42.8427394280        1.7997575841        8.8605836648  W2        13580           0.0000000000
     39246     13082  TIP3      H2             44.2589194280        1.6826275841        9.3827036648  W2        13580           0.0000000000
     39247     13083  TIP3      OH2            38.5819694280        3.3717075841        7.3987436648  W2        13581           0.0000000000
     39248     13083  TIP3      H1             37.6927694280        3.4712575841        7.0587036648  W2        13581           0.0000000000
     39249     13083  TIP3      H2             38.8784594280        2.5300075841        7.0525336648  W2        13581           0.0000000000
     39250     13084  TIP3      OH2            42.2351494280        3.3719675841        5.0552036648  W2        13582           0.0000000000
     39251     13084  TIP3      H1             43.1666994280        3.5009675841        5.2335136648  W2        13582           0.0000000000
     39252     13084  TIP3      H2             42.0201794280        4.0413975841        4.4056736648  W2        13582           0.0000000000
     39253     13085  TIP3      OH2            48.1588194280        0.9777075841       11.8361636648  W2        13583           0.0000000000
     39254     13085  TIP3      H1             47.4819794280        1.1090175841       12.5001336648  W2        13583           0.0000000000
     39255     13085  TIP3      H2             47.6733094280        0.8226575841       11.0259336648  W2        13583           0.0000000000
     39256     13086  TIP3      OH2            40.9091694280        4.5661875841        2.6218136648  W2        13584           0.0000000000
     39257     13086  TIP3      H1             40.3666794280        4.1865675841        1.9305736648  W2        13584           0.0000000000
     39258     13086  TIP3      H2             41.7426594280        4.7606575841        2.1932236648  W2        13584           0.0000000000
     39259     13087  TIP3      OH2            39.0443094280        9.1233775841       17.7209736648  W2        13586           0.0000000000
     39260     13087  TIP3      H1             39.7765494280        9.3779675841       18.2824236648  W2        13586           0.0000000000
     39261     13087  TIP3      H2             38.2641794280        9.3279175841       18.2365136648  W2        13586           0.0000000000
     39262     13088  TIP3      OH2            45.0735994280        4.5303775841       10.4589436648  W2        13587           0.0000000000
     39263     13088  TIP3      H1             45.6379394280        3.9840375841        9.9119036648  W2        13587           0.0000000000
     39264     13088  TIP3      H2             44.9259394280        4.0085675841       11.2477036648  W2        13587           0.0000000000
     39265     13089  TIP3      OH2            40.0755694280        0.6669875841        6.8774236648  W2        13588           0.0000000000
     39266     13089  TIP3      H1             39.7585194280       -0.2354824159        6.8419636648  W2        13588           0.0000000000
     39267     13089  TIP3      H2             40.8569794280        0.6687275841        6.3245836648  W2        13588           0.0000000000
     39268     13090  TIP3      OH2            43.7001894280        2.9189875841       12.8729836648  W2        13589           0.0000000000
     39269     13090  TIP3      H1             42.8647194280        3.3729375841       12.9832236648  W2        13589           0.0000000000
     39270     13090  TIP3      H2             44.2242494280        3.1948375841       13.6249736648  W2        13589           0.0000000000
     39271     13091  TIP3      OH2            44.2444494280        9.1317575841        4.5576236648  W2        13590           0.0000000000
     39272     13091  TIP3      H1             43.4995494280        8.6242875841        4.2354136648  W2        13590           0.0000000000
     39273     13091  TIP3      H2             44.1101694280        9.1805575841        5.5041036648  W2        13590           0.0000000000
     39274     13092  TIP3      OH2            51.3943394280        8.2645775841       13.3443836648  W2        13591           0.0000000000
     39275     13092  TIP3      H1             52.0362194280        8.7212075841       12.8006036648  W2        13591           0.0000000000
     39276     13092  TIP3      H2             50.5640294280        8.3778175841       12.8817936648  W2        13591           0.0000000000
     39277     13093  TIP3      OH2            48.1421294280        1.9457475841        2.7568836648  W2        13592           0.0000000000
     39278     13093  TIP3      H1             47.2035494280        2.0573075841        2.6057636648  W2        13592           0.0000000000
     39279     13093  TIP3      H2             48.4393394280        2.8024375841        3.0634536648  W2        13592           0.0000000000
     39280     13094  TIP3      OH2            45.7636594280        9.3160875841       15.7945336648  W2        13593           0.0000000000
     39281     13094  TIP3      H1             45.4182694280        8.9343275841       16.6014936648  W2        13593           0.0000000000
     39282     13094  TIP3      H2             45.5636694280       10.2494475841       15.8658236648  W2        13593           0.0000000000
     39283     13095  TIP3      OH2            48.8604794280        3.8130175841        4.4176236648  W2        13594           0.0000000000
     39284     13095  TIP3      H1             49.7523794280        3.6755175841        4.7367436648  W2        13594           0.0000000000
     39285     13095  TIP3      H2             48.9168394280        4.6036275841        3.8809736648  W2        13594           0.0000000000
     39286     13096  TIP3      OH2            39.3692794280        8.4267575841       10.3274136648  W2        13595           0.0000000000
     39287     13096  TIP3      H1             40.1139994280        8.4243275841        9.7260636648  W2        13595           0.0000000000
     39288     13096  TIP3      H2             39.4469394280        7.6031375841       10.8089236648  W2        13595           0.0000000000
     39289     13097  TIP3      OH2            46.3698594280       10.5901875841        3.5830836648  W2        13596           0.0000000000
     39290     13097  TIP3      H1             46.0746994280       11.4169775841        3.9645636648  W2        13596           0.0000000000
     39291     13097  TIP3      H2             45.6668594280        9.9708775841        3.7792236648  W2        13596           0.0000000000
     39292     13098  TIP3      OH2            36.3772494280        6.8874475841       15.6422636648  W2        13597           0.0000000000
     39293     13098  TIP3      H1             36.6001094280        6.4694075841       16.4740136648  W2        13597           0.0000000000
     39294     13098  TIP3      H2             35.7752594280        6.2749475841       15.2195436648  W2        13597           0.0000000000
     39295     13099  TIP3      OH2            48.0140194280       11.7776375841       15.7450336648  W2        13599           0.0000000000
     39296     13099  TIP3      H1             47.1134494280       11.9608975841       15.4774236648  W2        13599           0.0000000000
     39297     13099  TIP3      H2             48.0481294280       12.0365675841       16.6659136648  W2        13599           0.0000000000
     39298     13100  TIP3      OH2            53.7453494280        4.0224275841        4.1122936648  W2        13600           0.0000000000
     39299     13100  TIP3      H1             53.1909794280        3.6262275841        3.4400436648  W2        13600           0.0000000000
     39300     13100  TIP3      H2             53.8457094280        4.9329475841        3.8346236648  W2        13600           0.0000000000
     39301     13101  TIP3      OH2            53.7085494280        9.8225975841       16.9494436648  W2        13601           0.0000000000
     39302     13101  TIP3      H1             52.8573994280       10.0609775841       16.5820836648  W2        13601           0.0000000000
     39303     13101  TIP3      H2             54.2988894280        9.8059175841       16.1961536648  W2        13601           0.0000000000
     39304     13102  TIP3      OH2            52.0405194280       12.8084675841        4.5775036648  W2        13602           0.0000000000
     39305     13102  TIP3      H1             51.6676294280       11.9828475841        4.8865636648  W2        13602           0.0000000000
     39306     13102  TIP3      H2             52.3178694280       12.6254075841        3.6798436648  W2        13602           0.0000000000
     39307     13103  TIP3      OH2            49.2009094280        7.6164175841       11.5986936648  W2        13603           0.0000000000
     39308     13103  TIP3      H1             48.2725994280        7.3846075841       11.5716236648  W2        13603           0.0000000000
     39309     13103  TIP3      H2             49.6520194280        6.8393975841       11.2685736648  W2        13603           0.0000000000
     39310     13104  TIP3      OH2            41.7442194280       11.9445775841        7.7315636648  W2        13604           0.0000000000
     39311     13104  TIP3      H1             42.2714394280       12.7180175841        7.5314436648  W2        13604           0.0000000000
     39312     13104  TIP3      H2             40.8640694280       12.1694975841        7.4299636648  W2        13604           0.0000000000
     39313     13105  TIP3      OH2            37.4989894280        6.8069875841        2.3188036648  W2        13605           0.0000000000
     39314     13105  TIP3      H1             38.1149794280        7.4337075841        2.6982836648  W2        13605           0.0000000000
     39315     13105  TIP3      H2             36.6372494280        7.1229675841        2.5904536648  W2        13605           0.0000000000
     39316     13106  TIP3      OH2            43.1714494280        9.6075675841        7.3079936648  W2        13606           0.0000000000
     39317     13106  TIP3      H1             42.9304494280       10.5330075841        7.3495236648  W2        13606           0.0000000000
     39318     13106  TIP3      H2             42.4308094280        9.1486975841        7.7043836648  W2        13606           0.0000000000
     39319     13107  TIP3      OH2            43.6861094280       13.7569275841       13.6231036648  W2        13607           0.0000000000
     39320     13107  TIP3      H1             44.0485794280       14.6114875841       13.3895436648  W2        13607           0.0000000000
     39321     13107  TIP3      H2             44.2176294280       13.4650875841       14.3637336648  W2        13607           0.0000000000
     39322     13108  TIP3      OH2            41.8545294280       14.6293275841        6.8532136648  W2        13608           0.0000000000
     39323     13108  TIP3      H1             40.9045794280       14.7350675841        6.9045436648  W2        13608           0.0000000000
     39324     13108  TIP3      H2             42.2063394280       15.4500675841        7.1979636648  W2        13608           0.0000000000
     39325     13109  TIP3      OH2            47.2301894280        9.8559975841       13.3236636648  W2        13609           0.0000000000
     39326     13109  TIP3      H1             46.8043194280        9.6281675841       14.1500636648  W2        13609           0.0000000000
     39327     13109  TIP3      H2             47.8107694280        9.1171775841       13.1411936648  W2        13609           0.0000000000
     39328     13110  TIP3      OH2            49.4330794280       10.7850475841        2.3975636648  W2        13610           0.0000000000
     39329     13110  TIP3      H1             49.7863894280       10.4050275841        3.2019136648  W2        13610           0.0000000000
     39330     13110  TIP3      H2             48.4844294280       10.6915275841        2.4844936648  W2        13610           0.0000000000
     39331     13111  TIP3      OH2            49.8886094280       14.4079475841       15.7931436648  W2        13611           0.0000000000
     39332     13111  TIP3      H1             49.2869294280       13.8522375841       15.2977736648  W2        13611           0.0000000000
     39333     13111  TIP3      H2             50.1699794280       15.0749275841       15.1668836648  W2        13611           0.0000000000
     39334     13112  TIP3      OH2            53.9365194280       15.2642975841        2.5985836648  W2        13612           0.0000000000
     39335     13112  TIP3      H1             54.6803094280       15.8503475841        2.4587436648  W2        13612           0.0000000000
     39336     13112  TIP3      H2             53.2423294280       15.8328775841        2.9318236648  W2        13612           0.0000000000
     39337     13113  TIP3      OH2            38.0111994280        1.6407175841       15.2004036648  W2        13613           0.0000000000
     39338     13113  TIP3      H1             37.1184294280        1.9792575841       15.1328036648  W2        13613           0.0000000000
     39339     13113  TIP3      H2             37.9124794280        0.7853275841       15.6184836648  W2        13613           0.0000000000
     39340     13114  TIP3      OH2            50.2990094280        9.4572475841        4.6243536648  W2        13614           0.0000000000
     39341     13114  TIP3      H1             50.0217694280        8.7291775841        5.1804636648  W2        13614           0.0000000000
     39342     13114  TIP3      H2             51.2263094280        9.5764475841        4.8296136648  W2        13614           0.0000000000
     39343     13115  TIP3      OH2            37.6623994280       13.4451575841       13.6353436648  W2        13615           0.0000000000
     39344     13115  TIP3      H1             37.8794294280       12.5133975841       13.6043136648  W2        13615           0.0000000000
     39345     13115  TIP3      H2             37.9087494280       13.7196575841       14.5186236648  W2        13615           0.0000000000
     39346     13116  TIP3      OH2            43.5238594280       11.8966575841        0.8445636648  W2        13616           0.0000000000
     39347     13116  TIP3      H1             43.7628394280       11.1484675841        0.2974536648  W2        13616           0.0000000000
     39348     13116  TIP3      H2             43.2549894280       11.5088275841        1.6773436648  W2        13616           0.0000000000
     39349     13117  TIP3      OH2            42.4609194280       11.4670375841        3.3008236648  W2        13617           0.0000000000
     39350     13117  TIP3      H1             42.6077194280       10.9470175841        4.0909136648  W2        13617           0.0000000000
     39351     13117  TIP3      H2             42.4580894280       12.3737975841        3.6074136648  W2        13617           0.0000000000
     39352     13118  TIP3      OH2            38.9140294280        8.7193675841        3.8113636648  W2        13618           0.0000000000
     39353     13118  TIP3      H1             38.2279594280        9.0716175841        4.3783336648  W2        13618           0.0000000000
     39354     13118  TIP3      H2             39.4368194280        9.4823275841        3.5647936648  W2        13618           0.0000000000
     39355     13119  TIP3      OH2            46.7455394280        1.3817475841       14.0902636648  W2        13619           0.0000000000
     39356     13119  TIP3      H1             47.4443294280        1.4556175841       14.7402336648  W2        13619           0.0000000000
     39357     13119  TIP3      H2             46.3646794280        0.5172475841       14.2445536648  W2        13619           0.0000000000
     39358     13120  TIP3      OH2            47.5300294280        1.0339175841        5.1874936648  W2        13620           0.0000000000
     39359     13120  TIP3      H1             47.7498594280        1.5054575841        4.3840336648  W2        13620           0.0000000000
     39360     13120  TIP3      H2             48.0884294280        1.4281775841        5.8575536648  W2        13620           0.0000000000
     39361     13121  TIP3      OH2            45.1986394280       13.1643975841        4.0502436648  W2        13621           0.0000000000
     39362     13121  TIP3      H1             44.3822494280       13.6613675841        4.1026736648  W2        13621           0.0000000000
     39363     13121  TIP3      H2             45.7282694280       13.6397475841        3.4101236648  W2        13621           0.0000000000
     39364     13122  TIP3      OH2            44.7300194280        2.7617975841        6.0223336648  W2        13622           0.0000000000
     39365     13122  TIP3      H1             45.5422794280        3.2661175841        6.0685036648  W2        13622           0.0000000000
     39366     13122  TIP3      H2             44.4853194280        2.6167675841        6.9362936648  W2        13622           0.0000000000
     39367     13123  TIP3      OH2            45.2656594280        3.7480675841       15.2069936648  W2        13623           0.0000000000
     39368     13123  TIP3      H1             45.3846894280        4.3216075841       15.9640336648  W2        13623           0.0000000000
     39369     13123  TIP3      H2             45.9211194280        3.0600075841       15.3217736648  W2        13623           0.0000000000
     39370     13124  TIP3      OH2            45.6136894280       -0.1569024159        6.9604436648  W2        13624           0.0000000000
     39371     13124  TIP3      H1             45.2670394280        0.4601575841        7.6048736648  W2        13624           0.0000000000
     39372     13124  TIP3      H2             46.2723794280        0.3436675841        6.4789936648  W2        13624           0.0000000000
     39373     13125  TIP3      OH2            42.5369494280       14.2081175841        4.0319336648  W2        13625           0.0000000000
     39374     13125  TIP3      H1             42.6978194280       15.0078675841        3.5311936648  W2        13625           0.0000000000
     39375     13125  TIP3      H2             42.3397294280       14.5147175841        4.9169936648  W2        13625           0.0000000000
     39376     13126  TIP3      OH2            41.2713894280        0.9060375841        3.6476936648  W2        13626           0.0000000000
     39377     13126  TIP3      H1             41.1878694280        1.7943475841        3.9943336648  W2        13626           0.0000000000
     39378     13126  TIP3      H2             42.1614194280        0.6407075841        3.8793736648  W2        13626           0.0000000000
     39379     13127  TIP3      OH2            51.4702394280        1.6550975841       16.0419636648  W2        13627           0.0000000000
     39380     13127  TIP3      H1             50.5538194280        1.9172675841       15.9543336648  W2        13627           0.0000000000
     39381     13127  TIP3      H2             51.8057394280        1.6519975841       15.1454936648  W2        13627           0.0000000000
     39382     13128  TIP3      OH2            50.0723394280        5.4051975841       10.1376936648  W2        13628           0.0000000000
     39383     13128  TIP3      H1             49.2747794280        4.9902175841        9.8091936648  W2        13628           0.0000000000
     39384     13128  TIP3      H2             50.5174494280        4.7145675841       10.6287436648  W2        13628           0.0000000000
     39385     13129  TIP3      OH2            39.5299194280       11.3332575841        2.7081436648  W2        13629           0.0000000000
     39386     13129  TIP3      H1             40.1220694280       12.0327375841        2.9843836648  W2        13629           0.0000000000
     39387     13129  TIP3      H2             39.9892194280       10.9002075841        1.9886036648  W2        13629           0.0000000000
     39388     13130  TIP3      OH2            37.8458394280        3.9975575841        1.8240836648  W2        13630           0.0000000000
     39389     13130  TIP3      H1             37.8010994280        4.9368675841        2.0027836648  W2        13630           0.0000000000
     39390     13130  TIP3      H2             36.9581594280        3.7620475841        1.5542936648  W2        13630           0.0000000000
     39391     13131  TIP3      OH2            51.1587994280       14.6614475841       11.7600436648  W2        13631           0.0000000000
     39392     13131  TIP3      H1             51.0032294280       15.3398875841       11.1029736648  W2        13631           0.0000000000
     39393     13131  TIP3      H2             52.0914394280       14.7333775841       11.9631036648  W2        13631           0.0000000000
     39394     13132  TIP3      OH2            38.6540394280       -1.2207824159       10.4971836648  W2        13632           0.0000000000
     39395     13132  TIP3      H1             38.4250194280       -1.1615324159        9.5696836648  W2        13632           0.0000000000
     39396     13132  TIP3      H2             38.2113794280       -2.0122324159       10.8035936648  W2        13632           0.0000000000
     39397     13133  TIP3      OH2            37.5843694280       12.7199275841        6.6577636648  W2        13633           0.0000000000
     39398     13133  TIP3      H1             36.7522294280       13.1921975841        6.6849036648  W2        13633           0.0000000000
     39399     13133  TIP3      H2             38.1301994280       13.2296875841        6.0590736648  W2        13633           0.0000000000
     39400     13134  TIP3      OH2            45.5620394280       13.7597975841        0.9831636648  W2        13636           0.0000000000
     39401     13134  TIP3      H1             44.9181394280       13.1286575841        1.3045336648  W2        13636           0.0000000000
     39402     13134  TIP3      H2             46.3238694280       13.2285975841        0.7515136648  W2        13636           0.0000000000
     39403     13135  TIP3      OH2            50.1663294280       13.5767875841        1.2169636648  W2        13638           0.0000000000
     39404     13135  TIP3      H1             50.4493694280       12.7823075841        1.6696536648  W2        13638           0.0000000000
     39405     13135  TIP3      H2             50.9061194280       13.8098875841        0.6560736648  W2        13638           0.0000000000
     39406     13136  TIP3      OH2            41.1210594280        9.4862775841        1.0744536648  W2        13640           0.0000000000
     39407     13136  TIP3      H1             41.1854694280        8.6922375841        1.6050936648  W2        13640           0.0000000000
     39408     13136  TIP3      H2             41.7739794280        9.3675575841        0.3846536648  W2        13640           0.0000000000
     39409     13137  TIP3      OH2            46.4733994280       10.5334475841        0.8102536648  W2        13642           0.0000000000
     39410     13137  TIP3      H1             46.2048094280       10.7136575841        1.7111436648  W2        13642           0.0000000000
     39411     13137  TIP3      H2             46.2669594280        9.6080675841        0.6788336648  W2        13642           0.0000000000
     39412     13138  TIP3      OH2            49.1698194280        9.0282475841       15.7578636648  W2        13643           0.0000000000
     39413     13138  TIP3      H1             49.9152994280        9.6166175841       15.6382636648  W2        13643           0.0000000000
     39414     13138  TIP3      H2             48.4124994280        9.6102175841       15.8211736648  W2        13643           0.0000000000
     39415     13139  TIP3      OH2            42.2704394280        7.4588975841        3.3802536648  W2        13645           0.0000000000
     39416     13139  TIP3      H1             41.8106394280        6.9747275841        4.0661036648  W2        13645           0.0000000000
     39417     13139  TIP3      H2             42.5253094280        6.7904375841        2.7443036648  W2        13645           0.0000000000
     39418     13140  TIP3      OH2            41.5593694280        5.3516075841       15.7362136648  W2        13646           0.0000000000
     39419     13140  TIP3      H1             40.9409794280        6.0262675841       16.0166836648  W2        13646           0.0000000000
     39420     13140  TIP3      H2             41.9034894280        5.6729975841       14.9028336648  W2        13646           0.0000000000
     39421     13141  TIP3      OH2            43.3414794280        5.7020775841        1.6425736648  W2        13647           0.0000000000
     39422     13141  TIP3      H1             43.1609794280        5.5471975841        0.7154036648  W2        13647           0.0000000000
     39423     13141  TIP3      H2             44.2915294280        5.8099475841        1.6873636648  W2        13647           0.0000000000
     39424     13142  TIP3      OH2            52.7313094280        8.0564975841        1.0883836648  W2        13649           0.0000000000
     39425     13142  TIP3      H1             52.4577894280        7.6320475841        0.2752136648  W2        13649           0.0000000000
     39426     13142  TIP3      H2             52.7707194280        8.9879475841        0.8714236648  W2        13649           0.0000000000
     39427     13143  TIP3      OH2            41.8987394280        2.7066875841       16.8185236648  W2        13650           0.0000000000
     39428     13143  TIP3      H1             42.0488294280        1.9778175841       16.2164936648  W2        13650           0.0000000000
     39429     13143  TIP3      H2             41.9009794280        3.4838575841       16.2597436648  W2        13650           0.0000000000
     39430     13144  TIP3      OH2            42.3113094280        1.0762675841       14.3112636648  W2        13651           0.0000000000
     39431     13144  TIP3      H1             42.8470594280        1.5279375841       13.6591936648  W2        13651           0.0000000000
     39432     13144  TIP3      H2             41.4592694280        0.9682475841       13.8886736648  W2        13651           0.0000000000
     39433     13145  TIP3      OH2            43.8931494280        6.5158875841       14.5507836648  W2        13652           0.0000000000
     39434     13145  TIP3      H1             44.6436294280        6.3596375841       13.9775636648  W2        13652           0.0000000000
     39435     13145  TIP3      H2             43.5539794280        7.3675475841       14.2753336648  W2        13652           0.0000000000
     39436     13146  TIP3      OH2            49.6254894280        7.1195875841       17.6565836648  W2        13654           0.0000000000
     39437     13146  TIP3      H1             49.3439894280        7.8290475841       17.0789636648  W2        13654           0.0000000000
     39438     13146  TIP3      H2             50.5679194280        7.0468875841       17.5057036648  W2        13654           0.0000000000
     39439     13147  TIP3      OH2            43.1168594280       -1.4671624159       14.7426236648  W2        13656           0.0000000000
     39440     13147  TIP3      H1             43.0188194280       -0.5208424159       14.6372436648  W2        13656           0.0000000000
     39441     13147  TIP3      H2             42.3744794280       -1.8397824159       14.2669736648  W2        13656           0.0000000000
     39442     13148  TIP3      OH2            47.0965694280        1.9817275841       17.3818136648  W2        13658           0.0000000000
     39443     13148  TIP3      H1             46.1491094280        2.0136975841       17.5141436648  W2        13658           0.0000000000
     39444     13148  TIP3      H2             47.4092394280        1.3564375841       18.0356336648  W2        13658           0.0000000000
     39445     13149  TIP3      OH2            43.3386694280       -2.1734224159       17.4139036648  W2        13661           0.0000000000
     39446     13149  TIP3      H1             44.0505094280       -2.8132024159       17.3998136648  W2        13661           0.0000000000
     39447     13149  TIP3      H2             43.2377094280       -1.9065924159       16.5002136648  W2        13661           0.0000000000
     39448     13150  TIP3      OH2            43.2386494280       16.3924475841        2.6439336648  W2        13663           0.0000000000
     39449     13150  TIP3      H1             44.1717194280       16.5503175841        2.7877736648  W2        13663           0.0000000000
     39450     13150  TIP3      H2             42.9745294280       17.0677475841        2.0190836648  W2        13663           0.0000000000
     39451     13151  TIP3      OH2            36.8071394280       11.0288275841        2.1267436648  W2        13664           0.0000000000
     39452     13151  TIP3      H1             37.7210594280       11.1077175841        2.4001336648  W2        13664           0.0000000000
     39453     13151  TIP3      H2             36.8144494280       10.3417875841        1.4603036648  W2        13664           0.0000000000
     39454     13152  TIP3      OH2            35.4561994280       16.4216775841        7.2041336648  W2        13665           0.0000000000
     39455     13152  TIP3      H1             34.8089094280       15.9598475841        6.6712536648  W2        13665           0.0000000000
     39456     13152  TIP3      H2             35.8106594280       15.7500075841        7.7867536648  W2        13665           0.0000000000
     39457     13153  TIP3      OH2            36.3261194280       14.5023775841        9.0087536648  W2        13666           0.0000000000
     39458     13153  TIP3      H1             35.9917994280       13.6221075841        9.1807736648  W2        13666           0.0000000000
     39459     13153  TIP3      H2             36.5483594280       14.8478775841        9.8733136648  W2        13666           0.0000000000
     39460     13154  TIP3      OH2            53.8745994280       15.3120175841       11.9892336648  W2        13667           0.0000000000
     39461     13154  TIP3      H1             53.8532694280       15.4968575841       12.9281736648  W2        13667           0.0000000000
     39462     13154  TIP3      H2             54.5652194280       15.8804175841       11.6483736648  W2        13667           0.0000000000
     39463     13155  TIP3      OH2            53.4378894280       14.8791275841       14.9111436648  W2        13668           0.0000000000
     39464     13155  TIP3      H1             52.9507594280       14.1435375841       14.5398836648  W2        13668           0.0000000000
     39465     13155  TIP3      H2             53.9871594280       14.4855175841       15.5890836648  W2        13668           0.0000000000
     39466     13156  TIP3      OH2            53.1895894280        8.9253075841        5.0634236648  W2        13670           0.0000000000
     39467     13156  TIP3      H1             54.0397294280        9.3463975841        5.1905836648  W2        13670           0.0000000000
     39468     13156  TIP3      H2             53.1950994280        8.1853175841        5.6705636648  W2        13670           0.0000000000
     39469     13157  TIP3      OH2            53.5841494280        6.9790475841        6.8869936648  W2        13671           0.0000000000
     39470     13157  TIP3      H1             52.8576094280        6.4993075841        7.2847536648  W2        13671           0.0000000000
     39471     13157  TIP3      H2             54.1654794280        7.1845175841        7.6191536648  W2        13671           0.0000000000
     39472     13158  TIP3      OH2            53.3432694280        9.7637975841       11.8347536648  W2        13672           0.0000000000
     39473     13158  TIP3      H1             54.1766894280        9.3857975841       11.5541136648  W2        13672           0.0000000000
     39474     13158  TIP3      H2             53.4552994280       10.7069175841       11.7156636648  W2        13672           0.0000000000
     39475     13159  TIP3      OH2            51.8294994280       12.6415475841       14.1415936648  W2        13673           0.0000000000
     39476     13159  TIP3      H1             51.1820294280       12.9666975841       14.7671136648  W2        13673           0.0000000000
     39477     13159  TIP3      H2             51.3118994280       12.2013175841       13.4674236648  W2        13673           0.0000000000
     39478     13160  TIP3      OH2            53.8524594280        6.8798975841        3.2781236648  W2        13674           0.0000000000
     39479     13160  TIP3      H1             53.3305694280        7.2363075841        2.5592136648  W2        13674           0.0000000000
     39480     13160  TIP3      H2             53.8193794280        7.5546775841        3.9562136648  W2        13674           0.0000000000
     39481     13161  TIP3      OH2            52.2013594280        4.1194575841        1.8288336648  W2        13675           0.0000000000
     39482     13161  TIP3      H1             52.2977994280        4.7861575841        1.1488036648  W2        13675           0.0000000000
     39483     13161  TIP3      H2             52.0613194280        3.3040875841        1.3473836648  W2        13675           0.0000000000
     39484     13162  TIP3      OH2            51.3708294280        5.4996975841        7.4498636648  W2        13676           0.0000000000
     39485     13162  TIP3      H1             51.2207094280        4.5545575841        7.4296436648  W2        13676           0.0000000000
     39486     13162  TIP3      H2             51.0172794280        5.7808375841        8.2937736648  W2        13676           0.0000000000
     39487     13163  TIP3      OH2            36.4060694280        7.5779175841       11.4602436648  W2        13677           0.0000000000
     39488     13163  TIP3      H1             36.5903594280        7.4960875841       10.5245336648  W2        13677           0.0000000000
     39489     13163  TIP3      H2             37.2553594280        7.4536175841       11.8838836648  W2        13677           0.0000000000
     39490     13164  TIP3      OH2            52.2271194280        7.4700275841       17.0886936648  W2        13678           0.0000000000
     39491     13164  TIP3      H1             52.8098494280        6.7352575841       17.2804136648  W2        13678           0.0000000000
     39492     13164  TIP3      H2             52.7910494280        8.2420575841       17.1352736648  W2        13678           0.0000000000
     39493     13165  TIP3      OH2            53.7238294280        5.3726075841       17.7732336648  W2        13679           0.0000000000
     39494     13165  TIP3      H1             52.8604994280        4.9938175841       17.6077036648  W2        13679           0.0000000000
     39495     13165  TIP3      H2             54.3281994280        4.6340875841       17.6988136648  W2        13679           0.0000000000
     39496     13166  TIP3      OH2            51.4487394280        1.5274375841        0.9463836648  W2        13680           0.0000000000
     39497     13166  TIP3      H1             52.0593194280        1.1561175841        1.5832036648  W2        13680           0.0000000000
     39498     13166  TIP3      H2             50.6118894280        1.1061275841        1.1423836648  W2        13680           0.0000000000
     39499     13167  TIP3      OH2            51.0813094280        3.0822775841        5.9123736648  W2        13681           0.0000000000
     39500     13167  TIP3      H1             51.3610194280        2.1753175841        6.0365436648  W2        13681           0.0000000000
     39501     13167  TIP3      H2             51.8404794280        3.5164275841        5.5232936648  W2        13681           0.0000000000
     39502     13168  TIP3      OH2            51.6931394280        3.6640175841       11.3482636648  W2        13682           0.0000000000
     39503     13168  TIP3      H1             52.6259394280        3.8760075841       11.3138636648  W2        13682           0.0000000000
     39504     13168  TIP3      H2             51.4578894280        3.7652275841       12.2705636648  W2        13682           0.0000000000
     39505     13169  TIP3      OH2            51.7223294280        4.4005475841       14.1242036648  W2        13683           0.0000000000
     39506     13169  TIP3      H1             50.8794594280        4.6685875841       14.4901836648  W2        13683           0.0000000000
     39507     13169  TIP3      H2             52.1647594280        5.2227375841       13.9133136648  W2        13683           0.0000000000
     39508     13170  TIP3      OH2            36.0035494280        2.8484175841       17.6011236648  W2        13684           0.0000000000
     39509     13170  TIP3      H1             36.9230394280        2.7262475841       17.8374336648  W2        13684           0.0000000000
     39510     13170  TIP3      H2             35.5539994280        2.0983875841       17.9904736648  W2        13684           0.0000000000
     39511     13171  TIP3      OH2            51.6947894280        0.3452075841        5.9605736648  W2        13686           0.0000000000
     39512     13171  TIP3      H1             51.8772894280       -0.1036424159        6.7860736648  W2        13686           0.0000000000
     39513     13171  TIP3      H2             51.0950794280       -0.2393524159        5.4970336648  W2        13686           0.0000000000
     39514     13172  TIP3      OH2            37.2247994280        1.1605775841       10.4924136648  W2        13687           0.0000000000
     39515     13172  TIP3      H1             37.6699594280        0.3688275841       10.7943836648  W2        13687           0.0000000000
     39516     13172  TIP3      H2             37.6910994280        1.8770975841       10.9229736648  W2        13687           0.0000000000
     39517     13173  TIP3      OH2            35.5288294280        4.1598775841       11.5614336648  W2        13688           0.0000000000
     39518     13173  TIP3      H1             36.0208094280        3.9389275841       10.7706336648  W2        13688           0.0000000000
     39519     13173  TIP3      H2             35.8909194280        5.0002175841       11.8423836648  W2        13688           0.0000000000
     39520     13174  TIP3      OH2            53.5614094280        0.4130175841        2.4886036648  W2        13690           0.0000000000
     39521     13174  TIP3      H1             53.9736694280       -0.3084124159        2.0134036648  W2        13690           0.0000000000
     39522     13174  TIP3      H2             54.2430594280        1.0824775841        2.5470336648  W2        13690           0.0000000000
     39523     13175  TIP3      OH2            35.8424794280        0.4177875841        5.6156736648  W2        13691           0.0000000000
     39524     13175  TIP3      H1             34.9173194280        0.6264475841        5.4862236648  W2        13691           0.0000000000
     39525     13175  TIP3      H2             36.2964694280        0.9018675841        4.9259036648  W2        13691           0.0000000000
     39526     13176  TIP3      OH2            50.6131994280       15.4019575841        7.5614136648  W2        13692           0.0000000000
     39527     13176  TIP3      H1             51.2654894280       15.0541675841        6.9533236648  W2        13692           0.0000000000
     39528     13176  TIP3      H2             51.1235794280       15.8902775841        8.2073836648  W2        13692           0.0000000000
     39529     13177  TIP3      OH2            35.8060194280       -0.8443124159       13.9599236648  W2        13693           0.0000000000
     39530     13177  TIP3      H1             35.1410694280       -1.0902824159       14.6030136648  W2        13693           0.0000000000
     39531     13177  TIP3      H2             35.3631494280       -0.2222724159       13.3827236648  W2        13693           0.0000000000
     39532     13178  TIP3      OH2            40.9522394280       13.3052175841       14.3629036648  W2        13695           0.0000000000
     39533     13178  TIP3      H1             40.5273494280       14.1150675841       14.0803636648  W2        13695           0.0000000000
     39534     13178  TIP3      H2             41.8565194280       13.3906275841       14.0608836648  W2        13695           0.0000000000
     39535     13179  TIP3      OH2            45.2633794280       14.7042175841       17.3222736648  W2        13696           0.0000000000
     39536     13179  TIP3      H1             45.4481294280       14.3708275841       18.2003036648  W2        13696           0.0000000000
     39537     13179  TIP3      H2             46.1098294280       15.0140775841       17.0001936648  W2        13696           0.0000000000
     39538     13180  TIP3      OH2            47.6084194280       15.9901075841       16.5664136648  W2        13697           0.0000000000
     39539     13180  TIP3      H1             48.2853094280       15.3573375841       16.3263336648  W2        13697           0.0000000000
     39540     13180  TIP3      H2             47.9302994280       16.3911575841       17.3737436648  W2        13697           0.0000000000
     39541     13181  TIP3      OH2            52.5257994280       -1.4203424159       15.6459136648  W2        13698           0.0000000000
     39542     13181  TIP3      H1             51.7131494280       -1.0953124159       15.2583836648  W2        13698           0.0000000000
     39543     13181  TIP3      H2             52.7586494280       -2.1804924159       15.1128236648  W2        13698           0.0000000000
     39544     13182  TIP3      OH2            38.3539094280       16.5616075841       14.4104336648  W2        13699           0.0000000000
     39545     13182  TIP3      H1             37.6335494280       17.0017075841       13.9592036648  W2        13699           0.0000000000
     39546     13182  TIP3      H2             37.9883094280       16.3110775841       15.2588336648  W2        13699           0.0000000000
     39547     13183  TIP3      OH2            40.8211694280       16.1619975841       13.4401536648  W2        13700           0.0000000000
     39548     13183  TIP3      H1             39.9563894280       16.2338475841       13.8441636648  W2        13700           0.0000000000
     39549     13183  TIP3      H2             40.7660694280       16.7087275841       12.6564036648  W2        13700           0.0000000000
     39550     13184  TIP3      OH2            45.5317294280       16.0498875841       12.6157536648  W2        13701           0.0000000000
     39551     13184  TIP3      H1             45.0751294280       16.5788575841       11.9615936648  W2        13701           0.0000000000
     39552     13184  TIP3      H2             45.6945294280       16.6530275841       13.3409836648  W2        13701           0.0000000000
     39553     13185  TIP3      OH2            47.8593594280       14.9278475841       13.5607836648  W2        13702           0.0000000000
     39554     13185  TIP3      H1             46.9547294280       15.0928675841       13.2949936648  W2        13702           0.0000000000
     39555     13185  TIP3      H2             48.2882194280       15.7810675841       13.4951236648  W2        13702           0.0000000000
     39556     13186  TIP3      OH2            50.4635494280       16.4977575841       13.8555636648  W2        13703           0.0000000000
     39557     13186  TIP3      H1             50.2817494280       17.4136475841       13.6450536648  W2        13703           0.0000000000
     39558     13186  TIP3      H2             50.6403294280       16.0874675841       13.0090236648  W2        13703           0.0000000000
     39559     13187  TIP3      OH2            37.7687194280       15.1848575841       11.3206136648  W2        13704           0.0000000000
     39560     13187  TIP3      H1             37.7503194280       14.7593675841       12.1778436648  W2        13704           0.0000000000
     39561     13187  TIP3      H2             38.5735094280       14.8663575841       10.9118336648  W2        13704           0.0000000000
     39562     13188  TIP3      OH2            39.9100294280       13.8947275841        9.9756036648  W2        13705           0.0000000000
     39563     13188  TIP3      H1             39.6910994280       12.9784675841       10.1452036648  W2        13705           0.0000000000
     39564     13188  TIP3      H2             40.7342494280       14.0347675841       10.4417436648  W2        13705           0.0000000000
     39565     13189  TIP3      OH2            42.4472794280       14.3646575841       10.8244036648  W2        13706           0.0000000000
     39566     13189  TIP3      H1             42.6598494280       13.4765575841       10.5374936648  W2        13706           0.0000000000
     39567     13189  TIP3      H2             42.5117894280       14.3304275841       11.7788036648  W2        13706           0.0000000000
     39568     13190  TIP3      OH2            45.9556494280        0.0287175841        9.9687336648  W2        13707           0.0000000000
     39569     13190  TIP3      H1             45.2813294280       -0.6007224159       10.2243136648  W2        13707           0.0000000000
     39570     13190  TIP3      H2             46.5195694280       -0.4553924159        9.3655236648  W2        13707           0.0000000000
     39571     13191  TIP3      OH2            51.0983694280       -1.8638824159       10.0814436648  W2        13708           0.0000000000
     39572     13191  TIP3      H1             51.7021294280       -1.3163424159        9.5795436648  W2        13708           0.0000000000
     39573     13191  TIP3      H2             50.2285694280       -1.5448424159        9.8408536648  W2        13708           0.0000000000
     39574     13192  TIP3      OH2            52.8254094280       -0.7250124159        8.4145336648  W2        13709           0.0000000000
     39575     13192  TIP3      H1             53.4371594280       -1.2394424159        7.8878936648  W2        13709           0.0000000000
     39576     13192  TIP3      H2             53.2077494280        0.1521975841        8.4379736648  W2        13709           0.0000000000
     39577     13193  TIP3      OH2            38.2823994280       -1.3372524159        7.7907236648  W2        13710           0.0000000000
     39578     13193  TIP3      H1             37.5053794280       -1.5717624159        7.2833136648  W2        13710           0.0000000000
     39579     13193  TIP3      H2             38.8127594280       -2.1340424159        7.7995236648  W2        13710           0.0000000000
     39580     13194  TIP3      OH2            37.1187394280       -1.5394424159        3.5943336648  W2        13711           0.0000000000
     39581     13194  TIP3      H1             37.5578094280       -0.9283924159        3.0026836648  W2        13711           0.0000000000
     39582     13194  TIP3      H2             36.4849794280       -1.0010324159        4.0683336648  W2        13711           0.0000000000
     39583     13195  TIP3      OH2            42.8616594280       -1.4105424159        7.6040336648  W2        13712           0.0000000000
     39584     13195  TIP3      H1             43.7359994280       -1.0221124159        7.5744636648  W2        13712           0.0000000000
     39585     13195  TIP3      H2             42.7257394280       -1.6257624159        8.5267536648  W2        13712           0.0000000000
     39586     13196  TIP3      OH2            48.4184994280       -1.3805624159        9.2532036648  W2        13713           0.0000000000
     39587     13196  TIP3      H1             48.4946594280       -1.2854024159        8.3038036648  W2        13713           0.0000000000
     39588     13196  TIP3      H2             48.1434194280       -2.2882724159        9.3821136648  W2        13713           0.0000000000
     39589     13197  TIP3      OH2            49.7717594280       -1.3547824159        4.9457036648  W2        13714           0.0000000000
     39590     13197  TIP3      H1             49.0688694280       -0.7398624159        4.7358436648  W2        13714           0.0000000000
     39591     13197  TIP3      H2             49.3268994280       -2.1921124159        5.0767936648  W2        13714           0.0000000000
     39592     13198  TIP3      OH2            37.0196894280       14.4087775841        4.4918436648  W2        13715           0.0000000000
     39593     13198  TIP3      H1             36.3346794280       14.3706675841        3.8243536648  W2        13715           0.0000000000
     39594     13198  TIP3      H2             37.0234094280       15.3215375841        4.7800536648  W2        13715           0.0000000000
     39595     13199  TIP3      OH2            38.9796494280        0.3767075841        2.0367436648  W2        13716           0.0000000000
     39596     13199  TIP3      H1             39.4709894280       -0.2530524159        1.5092936648  W2        13716           0.0000000000
     39597     13199  TIP3      H2             39.6032794280        0.6726475841        2.6998636648  W2        13716           0.0000000000
     39598     13200  TIP3      OH2            44.0056594280        0.6698575841        4.4937936648  W2        13717           0.0000000000
     39599     13200  TIP3      H1             44.1837894280        0.0231775841        5.1766536648  W2        13717           0.0000000000
     39600     13200  TIP3      H2             43.9522794280        1.5036275841        4.9609036648  W2        13717           0.0000000000
     39601     13201  TIP3      OH2            45.8840394280       15.6182675841        2.8894636648  W2        13718           0.0000000000
     39602     13201  TIP3      H1             46.7500594280       15.9850075841        2.7112836648  W2        13718           0.0000000000
     39603     13201  TIP3      H2             45.6373194280       15.1790675841        2.0755436648  W2        13718           0.0000000000
     39604     13202  TIP3      OH2            52.5929994280       15.1812975841        5.5685736648  W2        13719           0.0000000000
     39605     13202  TIP3      H1             52.3987094280       14.4335075841        5.0035336648  W2        13719           0.0000000000
     39606     13202  TIP3      H2             52.5540094280       15.9393075841        4.9853636648  W2        13719           0.0000000000
     39607     13203  TIP3      OH2            38.2401994280       -0.8230624159       17.3083436648  W2        13720           0.0000000000
     39608     13203  TIP3      H1             37.8740194280       -1.5888024159       17.7508136648  W2        13720           0.0000000000
     39609     13203  TIP3      H2             39.1530494280       -0.7940424159       17.5948536648  W2        13720           0.0000000000
     39610     13204  TIP3      OH2            38.8378094280       15.3288575841        1.5170536648  W2        13722           0.0000000000
     39611     13204  TIP3      H1             38.5702694280       15.6151475841        2.3903636648  W2        13722           0.0000000000
     39612     13204  TIP3      H2             39.6090694280       14.7827775841        1.6693036648  W2        13722           0.0000000000
     39613     13205  TIP3      OH2            51.8106194280       13.9325375841       17.7187536648  W2        13724           0.0000000000
     39614     13205  TIP3      H1             51.0288094280       13.7463375841       17.1988136648  W2        13724           0.0000000000
     39615     13205  TIP3      H2             51.7386094280       14.8619675841       17.9360036648  W2        13724           0.0000000000
     39616     13206  TIP3      OH2            57.5182894280        6.6882575841       12.7612836648  W2        13725           0.0000000000
     39617     13206  TIP3      H1             57.5594994280        6.0625875841       13.4845236648  W2        13725           0.0000000000
     39618     13206  TIP3      H2             58.2210594280        7.3121175841       12.9433236648  W2        13725           0.0000000000
     39619     13207  TIP3      OH2            58.4415994280       11.1381475841       11.2961936648  W2        13726           0.0000000000
     39620     13207  TIP3      H1             58.0721194280       10.3361975841       10.9266236648  W2        13726           0.0000000000
     39621     13207  TIP3      H2             59.3827094280       10.9696375841       11.3425336648  W2        13726           0.0000000000
     39622     13208  TIP3      OH2            55.0516494280        4.7984075841        6.6890736648  W2        13727           0.0000000000
     39623     13208  TIP3      H1             54.6039894280        5.6442775841        6.6707236648  W2        13727           0.0000000000
     39624     13208  TIP3      H2             54.4907694280        4.2188275841        6.1735836648  W2        13727           0.0000000000
     39625     13209  TIP3      OH2            55.7622594280        6.9603675841        8.8148736648  W2        13728           0.0000000000
     39626     13209  TIP3      H1             55.9756094280        6.1905275841        9.3421736648  W2        13728           0.0000000000
     39627     13209  TIP3      H2             56.5000194280        7.0500375841        8.2116336648  W2        13728           0.0000000000
     39628     13210  TIP3      OH2            56.4549094280        4.3986475841        9.9364936648  W2        13729           0.0000000000
     39629     13210  TIP3      H1             57.1085694280        3.8488175841       10.3685036648  W2        13729           0.0000000000
     39630     13210  TIP3      H2             56.4788394280        4.1245475841        9.0196936648  W2        13729           0.0000000000
     39631     13211  TIP3      OH2            58.2386794280        2.8120875841       11.2006536648  W2        13730           0.0000000000
     39632     13211  TIP3      H1             58.8523094280        3.4448475841       11.5738936648  W2        13730           0.0000000000
     39633     13211  TIP3      H2             58.7507494280        2.3395875841       10.5443436648  W2        13730           0.0000000000
     39634     13212  TIP3      OH2            55.7426094280       10.2305675841        5.1048836648  W2        13731           0.0000000000
     39635     13212  TIP3      H1             55.4706994280       10.4596675841        4.2161736648  W2        13731           0.0000000000
     39636     13212  TIP3      H2             55.7881794280       11.0684475841        5.5654136648  W2        13731           0.0000000000
     39637     13213  TIP3      OH2            58.1556594280        7.2688675841       15.6148536648  W2        13732           0.0000000000
     39638     13213  TIP3      H1             58.2259794280        7.9195475841       16.3133536648  W2        13732           0.0000000000
     39639     13213  TIP3      H2             57.2648794280        7.3716175841       15.2799436648  W2        13732           0.0000000000
     39640     13214  TIP3      OH2            55.0723294280        9.3352775841       14.4398536648  W2        13733           0.0000000000
     39641     13214  TIP3      H1             54.5711694280        9.3072175841       13.6248236648  W2        13733           0.0000000000
     39642     13214  TIP3      H2             55.0776994280        8.4295975841       14.7495836648  W2        13733           0.0000000000
     39643     13215  TIP3      OH2            54.8225994280       12.1156575841       11.3238736648  W2        13734           0.0000000000
     39644     13215  TIP3      H1             55.7686594280       11.9713575841       11.3048236648  W2        13734           0.0000000000
     39645     13215  TIP3      H2             54.7102294280       12.8999375841       11.8609936648  W2        13734           0.0000000000
     39646     13216  TIP3      OH2            58.0668094280       14.9166175841        7.4693436648  W2        13735           0.0000000000
     39647     13216  TIP3      H1             58.2188494280       14.5686575841        8.3479936648  W2        13735           0.0000000000
     39648     13216  TIP3      H2             57.2158494280       14.5603475841        7.2140636648  W2        13735           0.0000000000
     39649     13217  TIP3      OH2            57.3213794280       10.6588175841       15.4831336648  W2        13736           0.0000000000
     39650     13217  TIP3      H1             57.5375094280       10.2973775841       16.3427136648  W2        13736           0.0000000000
     39651     13217  TIP3      H2             56.4658494280       10.2841975841       15.2734836648  W2        13736           0.0000000000
     39652     13218  TIP3      OH2            57.7812394280        4.4146675841       14.4407736648  W2        13737           0.0000000000
     39653     13218  TIP3      H1             57.7431794280        4.8148275841       15.3094836648  W2        13737           0.0000000000
     39654     13218  TIP3      H2             57.2903494280        3.5979075841       14.5310636648  W2        13737           0.0000000000
     39655     13219  TIP3      OH2            54.3893194280        1.5308475841        8.2912436648  W2        13738           0.0000000000
     39656     13219  TIP3      H1             55.0200894280        1.5020575841        9.0106336648  W2        13738           0.0000000000
     39657     13219  TIP3      H2             54.8387494280        1.1057175841        7.5608336648  W2        13738           0.0000000000
     39658     13220  TIP3      OH2            55.6635294280        2.2770475841        3.7152836648  W2        13739           0.0000000000
     39659     13220  TIP3      H1             56.1376994280        2.8680375841        3.1303736648  W2        13739           0.0000000000
     39660     13220  TIP3      H2             54.9461694280        2.8073375841        4.0622936648  W2        13739           0.0000000000
     39661     13221  TIP3      OH2            57.4379694280        3.3717075841        7.3987436648  W2        13740           0.0000000000
     39662     13221  TIP3      H1             56.5487694280        3.4712575841        7.0587036648  W2        13740           0.0000000000
     39663     13221  TIP3      H2             57.7344594280        2.5300075841        7.0525336648  W2        13740           0.0000000000
     39664     13222  TIP3      OH2            57.9003094280        9.1233775841       17.7209736648  W2        13741           0.0000000000
     39665     13222  TIP3      H1             58.6325494280        9.3779675841       18.2824236648  W2        13741           0.0000000000
     39666     13222  TIP3      H2             57.1201794280        9.3279175841       18.2365136648  W2        13741           0.0000000000
     39667     13223  TIP3      OH2            58.2252794280        8.4267575841       10.3274136648  W2        13742           0.0000000000
     39668     13223  TIP3      H1             58.9699994280        8.4243275841        9.7260636648  W2        13742           0.0000000000
     39669     13223  TIP3      H2             58.3029394280        7.6031375841       10.8089236648  W2        13742           0.0000000000
     39670     13224  TIP3      OH2            55.2332494280        6.8874475841       15.6422636648  W2        13743           0.0000000000
     39671     13224  TIP3      H1             55.4561094280        6.4694075841       16.4740136648  W2        13743           0.0000000000
     39672     13224  TIP3      H2             54.6312594280        6.2749475841       15.2195436648  W2        13743           0.0000000000
     39673     13225  TIP3      OH2            56.3549894280        6.8069875841        2.3188036648  W2        13744           0.0000000000
     39674     13225  TIP3      H1             56.9709794280        7.4337075841        2.6982836648  W2        13744           0.0000000000
     39675     13225  TIP3      H2             55.4932494280        7.1229675841        2.5904536648  W2        13744           0.0000000000
     39676     13226  TIP3      OH2            56.8671994280        1.6407175841       15.2004036648  W2        13745           0.0000000000
     39677     13226  TIP3      H1             55.9744294280        1.9792575841       15.1328036648  W2        13745           0.0000000000
     39678     13226  TIP3      H2             56.7684794280        0.7853275841       15.6184836648  W2        13745           0.0000000000
     39679     13227  TIP3      OH2            56.5183994280       13.4451575841       13.6353436648  W2        13746           0.0000000000
     39680     13227  TIP3      H1             56.7354294280       12.5133975841       13.6043136648  W2        13746           0.0000000000
     39681     13227  TIP3      H2             56.7647494280       13.7196575841       14.5186236648  W2        13746           0.0000000000
     39682     13228  TIP3      OH2            57.7700294280        8.7193675841        3.8113636648  W2        13747           0.0000000000
     39683     13228  TIP3      H1             57.0839594280        9.0716175841        4.3783336648  W2        13747           0.0000000000
     39684     13228  TIP3      H2             58.2928194280        9.4823275841        3.5647936648  W2        13747           0.0000000000
     39685     13229  TIP3      OH2            58.3859194280       11.3332575841        2.7081436648  W2        13748           0.0000000000
     39686     13229  TIP3      H1             58.9780694280       12.0327375841        2.9843836648  W2        13748           0.0000000000
     39687     13229  TIP3      H2             58.8452194280       10.9002075841        1.9886036648  W2        13748           0.0000000000
     39688     13230  TIP3      OH2            56.7018394280        3.9975575841        1.8240836648  W2        13749           0.0000000000
     39689     13230  TIP3      H1             56.6570994280        4.9368675841        2.0027836648  W2        13749           0.0000000000
     39690     13230  TIP3      H2             55.8141594280        3.7620475841        1.5542936648  W2        13749           0.0000000000
     39691     13231  TIP3      OH2            57.5100394280       -1.2207824159       10.4971836648  W2        13750           0.0000000000
     39692     13231  TIP3      H1             57.2810194280       -1.1615324159        9.5696836648  W2        13750           0.0000000000
     39693     13231  TIP3      H2             57.0673794280       -2.0122324159       10.8035936648  W2        13750           0.0000000000
     39694     13232  TIP3      OH2            56.4403694280       12.7199275841        6.6577636648  W2        13751           0.0000000000
     39695     13232  TIP3      H1             55.6082294280       13.1921975841        6.6849036648  W2        13751           0.0000000000
     39696     13232  TIP3      H2             56.9861994280       13.2296875841        6.0590736648  W2        13751           0.0000000000
     39697     13233  TIP3      OH2            55.6631394280       11.0288275841        2.1267436648  W2        13756           0.0000000000
     39698     13233  TIP3      H1             56.5770594280       11.1077175841        2.4001336648  W2        13756           0.0000000000
     39699     13233  TIP3      H2             55.6704494280       10.3417875841        1.4603036648  W2        13756           0.0000000000
     39700     13234  TIP3      OH2            54.3121994280       16.4216775841        7.2041336648  W2        13757           0.0000000000
     39701     13234  TIP3      H1             53.6649094280       15.9598475841        6.6712536648  W2        13757           0.0000000000
     39702     13234  TIP3      H2             54.6666594280       15.7500075841        7.7867536648  W2        13757           0.0000000000
     39703     13235  TIP3      OH2            55.1821194280       14.5023775841        9.0087536648  W2        13758           0.0000000000
     39704     13235  TIP3      H1             54.8477994280       13.6221075841        9.1807736648  W2        13758           0.0000000000
     39705     13235  TIP3      H2             55.4043594280       14.8478775841        9.8733136648  W2        13758           0.0000000000
     39706     13236  TIP3      OH2            55.2620694280        7.5779175841       11.4602436648  W2        13759           0.0000000000
     39707     13236  TIP3      H1             55.4463594280        7.4960875841       10.5245336648  W2        13759           0.0000000000
     39708     13236  TIP3      H2             56.1113594280        7.4536175841       11.8838836648  W2        13759           0.0000000000
     39709     13237  TIP3      OH2            54.8595494280        2.8484175841       17.6011236648  W2        13760           0.0000000000
     39710     13237  TIP3      H1             55.7790394280        2.7262475841       17.8374336648  W2        13760           0.0000000000
     39711     13237  TIP3      H2             54.4099994280        2.0983875841       17.9904736648  W2        13760           0.0000000000
     39712     13238  TIP3      OH2            56.0807994280        1.1605775841       10.4924136648  W2        13761           0.0000000000
     39713     13238  TIP3      H1             56.5259594280        0.3688275841       10.7943836648  W2        13761           0.0000000000
     39714     13238  TIP3      H2             56.5470994280        1.8770975841       10.9229736648  W2        13761           0.0000000000
     39715     13239  TIP3      OH2            54.3848294280        4.1598775841       11.5614336648  W2        13762           0.0000000000
     39716     13239  TIP3      H1             54.8768094280        3.9389275841       10.7706336648  W2        13762           0.0000000000
     39717     13239  TIP3      H2             54.7469194280        5.0002175841       11.8423836648  W2        13762           0.0000000000
     39718     13240  TIP3      OH2            54.6984794280        0.4177875841        5.6156736648  W2        13763           0.0000000000
     39719     13240  TIP3      H1             53.7733194280        0.6264475841        5.4862236648  W2        13763           0.0000000000
     39720     13240  TIP3      H2             55.1524694280        0.9018675841        4.9259036648  W2        13763           0.0000000000
     39721     13241  TIP3      OH2            54.6620194280       -0.8443124159       13.9599236648  W2        13764           0.0000000000
     39722     13241  TIP3      H1             53.9970694280       -1.0902824159       14.6030136648  W2        13764           0.0000000000
     39723     13241  TIP3      H2             54.2191494280       -0.2222724159       13.3827236648  W2        13764           0.0000000000
     39724     13242  TIP3      OH2            57.2099094280       16.5616075841       14.4104336648  W2        13766           0.0000000000
     39725     13242  TIP3      H1             56.4895494280       17.0017075841       13.9592036648  W2        13766           0.0000000000
     39726     13242  TIP3      H2             56.8443094280       16.3110775841       15.2588336648  W2        13766           0.0000000000
     39727     13243  TIP3      OH2            56.6247194280       15.1848575841       11.3206136648  W2        13767           0.0000000000
     39728     13243  TIP3      H1             56.6063194280       14.7593675841       12.1778436648  W2        13767           0.0000000000
     39729     13243  TIP3      H2             57.4295094280       14.8663575841       10.9118336648  W2        13767           0.0000000000
     39730     13244  TIP3      OH2            57.1383994280       -1.3372524159        7.7907236648  W2        13768           0.0000000000
     39731     13244  TIP3      H1             56.3613794280       -1.5717624159        7.2833136648  W2        13768           0.0000000000
     39732     13244  TIP3      H2             57.6687594280       -2.1340424159        7.7995236648  W2        13768           0.0000000000
     39733     13245  TIP3      OH2            55.9747394280       -1.5394424159        3.5943336648  W2        13769           0.0000000000
     39734     13245  TIP3      H1             56.4138094280       -0.9283924159        3.0026836648  W2        13769           0.0000000000
     39735     13245  TIP3      H2             55.3409794280       -1.0010324159        4.0683336648  W2        13769           0.0000000000
     39736     13246  TIP3      OH2            55.8756894280       14.4087775841        4.4918436648  W2        13770           0.0000000000
     39737     13246  TIP3      H1             55.1906794280       14.3706675841        3.8243536648  W2        13770           0.0000000000
     39738     13246  TIP3      H2             55.8794094280       15.3215375841        4.7800536648  W2        13770           0.0000000000
     39739     13247  TIP3      OH2            57.8356494280        0.3767075841        2.0367436648  W2        13771           0.0000000000
     39740     13247  TIP3      H1             58.3269894280       -0.2530524159        1.5092936648  W2        13771           0.0000000000
     39741     13247  TIP3      H2             58.4592794280        0.6726475841        2.6998636648  W2        13771           0.0000000000
     39742     13248  TIP3      OH2            57.0961994280       -0.8230624159       17.3083436648  W2        13772           0.0000000000
     39743     13248  TIP3      H1             56.7300194280       -1.5888024159       17.7508136648  W2        13772           0.0000000000
     39744     13248  TIP3      H2             58.0090494280       -0.7940424159       17.5948536648  W2        13772           0.0000000000
     39745     13249  TIP3      OH2            57.6938094280       15.3288575841        1.5170536648  W2        13773           0.0000000000
     39746     13249  TIP3      H1             57.4262694280       15.6151475841        2.3903636648  W2        13773           0.0000000000
     39747     13249  TIP3      H2             58.4650694280       14.7827775841        1.6693036648  W2        13773           0.0000000000
     39748     13250  TIP3      OH2           -46.9193405720       26.6749775841        7.7494736648  W2        13774           0.0000000000
     39749     13250  TIP3      H1            -46.8302305720       27.6187975841        7.6171836648  W2        13774           0.0000000000
     39750     13250  TIP3      H2            -47.5575805720       26.3996175841        7.0914136648  W2        13774           0.0000000000
     39751     13251  TIP3      OH2           -47.9862105720       25.9300475841       11.1682936648  W2        13775           0.0000000000
     39752     13251  TIP3      H1            -48.0244605720       25.2836775841       11.8732536648  W2        13775           0.0000000000
     39753     13251  TIP3      H2            -48.3085605720       25.4634875841       10.3971636648  W2        13775           0.0000000000
     39754     13252  TIP3      OH2           -55.6177105720       25.5442575841       12.7612836648  W2        13776           0.0000000000
     39755     13252  TIP3      H1            -55.5765005720       24.9185875841       13.4845236648  W2        13776           0.0000000000
     39756     13252  TIP3      H2            -54.9149405720       26.1681175841       12.9433236648  W2        13776           0.0000000000
     39757     13253  TIP3      OH2           -44.2801905720       28.8690875841        9.4698036648  W2        13777           0.0000000000
     39758     13253  TIP3      H1            -44.7209205720       28.1486875841        9.9203636648  W2        13777           0.0000000000
     39759     13253  TIP3      H2            -44.2932205720       29.5898075841       10.0995736648  W2        13777           0.0000000000
     39760     13254  TIP3      OH2           -54.6944005720       29.9941475841       11.2961936648  W2        13778           0.0000000000
     39761     13254  TIP3      H1            -55.0638805720       29.1921975841       10.9266236648  W2        13778           0.0000000000
     39762     13254  TIP3      H2            -53.7532905720       29.8256375841       11.3425336648  W2        13778           0.0000000000
     39763     13255  TIP3      OH2           -58.0843505720       23.6544075841        6.6890736648  W2        13779           0.0000000000
     39764     13255  TIP3      H1            -58.5320105720       24.5002775841        6.6707236648  W2        13779           0.0000000000
     39765     13255  TIP3      H2            -58.6452305720       23.0748275841        6.1735836648  W2        13779           0.0000000000
     39766     13256  TIP3      OH2           -57.3737405720       25.8163675841        8.8148736648  W2        13780           0.0000000000
     39767     13256  TIP3      H1            -57.1603905720       25.0465275841        9.3421736648  W2        13780           0.0000000000
     39768     13256  TIP3      H2            -56.6359805720       25.9060375841        8.2116336648  W2        13780           0.0000000000
     39769     13257  TIP3      OH2           -47.1686405720       33.9732575841        9.6818436648  W2        13781           0.0000000000
     39770     13257  TIP3      H1            -46.5490005720       33.2967275841        9.4087636648  W2        13781           0.0000000000
     39771     13257  TIP3      H2            -47.3769005720       33.7553375841       10.5903336648  W2        13781           0.0000000000
     39772     13258  TIP3      OH2           -49.5967705720       28.3621875841       11.5743936648  W2        13782           0.0000000000
     39773     13258  TIP3      H1            -49.2929805720       27.6763275841       10.9798036648  W2        13782           0.0000000000
     39774     13258  TIP3      H2            -48.8753705720       28.4810575841       12.1921936648  W2        13782           0.0000000000
     39775     13259  TIP3      OH2           -40.9337905720       19.9637175841       12.4350136648  W2        13783           0.0000000000
     39776     13259  TIP3      H1            -40.8845705720       20.5738375841       13.1709236648  W2        13783           0.0000000000
     39777     13259  TIP3      H2            -40.5082805720       20.4248075841       11.7121236648  W2        13783           0.0000000000
     39778     13260  TIP3      OH2           -46.4560705720       22.7564275841       11.9018736648  W2        13784           0.0000000000
     39779     13260  TIP3      H1            -46.3134805720       21.8101275841       11.9220336648  W2        13784           0.0000000000
     39780     13260  TIP3      H2            -46.5621705720       22.9634075841       10.9733636648  W2        13784           0.0000000000
     39781     13261  TIP3      OH2           -53.3012405720       20.8580675841        9.1743536648  W2        13785           0.0000000000
     39782     13261  TIP3      H1            -53.2581305720       21.7179175841        8.7559836648  W2        13785           0.0000000000
     39783     13261  TIP3      H2            -53.7588305720       20.3055375841        8.5406736648  W2        13785           0.0000000000
     39784     13262  TIP3      OH2           -45.5789705720       20.9886275841        7.5751836648  W2        13786           0.0000000000
     39785     13262  TIP3      H1            -44.9325405720       20.6599475841        8.1999436648  W2        13786           0.0000000000
     39786     13262  TIP3      H2            -45.0690305720       21.5065275841        6.9523236648  W2        13786           0.0000000000
     39787     13263  TIP3      OH2           -56.6810905720       23.2546475841        9.9364936648  W2        13787           0.0000000000
     39788     13263  TIP3      H1            -56.0274305720       22.7048175841       10.3685036648  W2        13787           0.0000000000
     39789     13263  TIP3      H2            -56.6571605720       22.9805475841        9.0196936648  W2        13787           0.0000000000
     39790     13264  TIP3      OH2           -51.5246405720       24.8047775841        9.1516436648  W2        13788           0.0000000000
     39791     13264  TIP3      H1            -50.9085405720       24.2783175841        9.6610436648  W2        13788           0.0000000000
     39792     13264  TIP3      H2            -52.1107605720       24.1646475841        8.7480036648  W2        13788           0.0000000000
     39793     13265  TIP3      OH2           -40.5423305720       21.4416375841       14.6709936648  W2        13789           0.0000000000
     39794     13265  TIP3      H1            -41.2308705720       22.0997075841       14.5756536648  W2        13789           0.0000000000
     39795     13265  TIP3      H2            -40.5268705720       21.2444275841       15.6075336648  W2        13789           0.0000000000
     39796     13266  TIP3      OH2           -54.4910505720       19.7759075841       13.2484336648  W2        13790           0.0000000000
     39797     13266  TIP3      H1            -54.7098805720       20.3059675841       12.4820336648  W2        13790           0.0000000000
     39798     13266  TIP3      H2            -55.1589605720       20.0024575841       13.8955736648  W2        13790           0.0000000000
     39799     13267  TIP3      OH2           -47.1220705720       29.2760175841        6.7923436648  W2        13791           0.0000000000
     39800     13267  TIP3      H1            -47.4175605720       28.9532475841        5.9410336648  W2        13791           0.0000000000
     39801     13267  TIP3      H2            -47.4462905720       30.1756875841        6.8336036648  W2        13791           0.0000000000
     39802     13268  TIP3      OH2           -51.9219105720       27.4514775841       13.5358036648  W2        13792           0.0000000000
     39803     13268  TIP3      H1            -52.6620005720       28.0496275841       13.6393236648  W2        13792           0.0000000000
     39804     13268  TIP3      H2            -51.2079605720       28.0054375841       13.2201636648  W2        13792           0.0000000000
     39805     13269  TIP3      OH2           -43.8151305720       20.2795575841        9.5557736648  W2        13793           0.0000000000
     39806     13269  TIP3      H1            -44.0303305720       19.5138975841       10.0883736648  W2        13793           0.0000000000
     39807     13269  TIP3      H2            -43.1593905720       20.7520175841       10.0686236648  W2        13793           0.0000000000
     39808     13270  TIP3      OH2           -54.8973205720       21.6680875841       11.2006536648  W2        13794           0.0000000000
     39809     13270  TIP3      H1            -54.2836905720       22.3008475841       11.5738936648  W2        13794           0.0000000000
     39810     13270  TIP3      H2            -54.3852505720       21.1955875841       10.5443436648  W2        13794           0.0000000000
     39811     13271  TIP3      OH2           -53.5144805720       29.4157775841       14.3229536648  W2        13795           0.0000000000
     39812     13271  TIP3      H1            -53.5197205720       30.2951275841       13.9448836648  W2        13795           0.0000000000
     39813     13271  TIP3      H2            -54.3680705720       29.3321875841       14.7479436648  W2        13795           0.0000000000
     39814     13272  TIP3      OH2           -57.3933905720       29.0865675841        5.1048836648  W2        13796           0.0000000000
     39815     13272  TIP3      H1            -57.6653005720       29.3156675841        4.2161736648  W2        13796           0.0000000000
     39816     13272  TIP3      H2            -57.3478205720       29.9244475841        5.5654136648  W2        13796           0.0000000000
     39817     13273  TIP3      OH2           -43.7684205720       30.7081575841       11.8177336648  W2        13797           0.0000000000
     39818     13273  TIP3      H1            -44.7100505720       30.7665475841       11.9794236648  W2        13797           0.0000000000
     39819     13273  TIP3      H2            -43.4918105720       31.6142075841       11.6807036648  W2        13797           0.0000000000
     39820     13274  TIP3      OH2           -43.4677205720       18.9946875841       13.2351236648  W2        13798           0.0000000000
     39821     13274  TIP3      H1            -44.2038005720       19.6053975841       13.1972536648  W2        13798           0.0000000000
     39822     13274  TIP3      H2            -42.7843205720       19.4095875841       12.7087636648  W2        13798           0.0000000000
     39823     13275  TIP3      OH2           -50.4645805720       17.0814175841       10.7009236648  W2        13799           0.0000000000
     39824     13275  TIP3      H1            -50.5821605720       16.1330175841       10.6467536648  W2        13799           0.0000000000
     39825     13275  TIP3      H2            -51.3195705720       17.4140275841       10.9740336648  W2        13799           0.0000000000
     39826     13276  TIP3      OH2           -45.5163005720       32.4895075841        8.4428936648  W2        13800           0.0000000000
     39827     13276  TIP3      H1            -45.0910705720       31.7822975841        7.9578536648  W2        13800           0.0000000000
     39828     13276  TIP3      H2            -45.1993005720       33.2907775841        8.0261136648  W2        13800           0.0000000000
     39829     13277  TIP3      OH2           -44.3566505720       30.3903575841        6.9515536648  W2        13801           0.0000000000
     39830     13277  TIP3      H1            -44.6141705720       29.7003675841        6.3401436648  W2        13801           0.0000000000
     39831     13277  TIP3      H2            -44.2855705720       29.9474775841        7.7971436648  W2        13801           0.0000000000
     39832     13278  TIP3      OH2           -42.6706305720       28.9570275841       15.4289036648  W2        13802           0.0000000000
     39833     13278  TIP3      H1            -42.5310005720       28.3652775841       14.6896036648  W2        13802           0.0000000000
     39834     13278  TIP3      H2            -42.5033505720       29.8296175841       15.0727836648  W2        13802           0.0000000000
     39835     13279  TIP3      OH2           -48.1980905720       25.9189775841        5.2015036648  W2        13803           0.0000000000
     39836     13279  TIP3      H1            -48.9095405720       26.4539475841        4.8495536648  W2        13803           0.0000000000
     39837     13279  TIP3      H2            -47.5071305720       25.9741875841        4.5413936648  W2        13803           0.0000000000
     39838     13280  TIP3      OH2           -48.1441705720       24.3764075841        2.2400036648  W2        13804           0.0000000000
     39839     13280  TIP3      H1            -47.4431805720       24.3990975841        2.8914036648  W2        13804           0.0000000000
     39840     13280  TIP3      H2            -47.8418805720       23.7483775841        1.5839336648  W2        13804           0.0000000000
     39841     13281  TIP3      OH2           -40.8287005720       25.2968275841       13.4949436648  W2        13805           0.0000000000
     39842     13281  TIP3      H1            -41.4812905720       25.9913875841       13.5840336648  W2        13805           0.0000000000
     39843     13281  TIP3      H2            -40.3636705720       25.5069175841       12.6851036648  W2        13805           0.0000000000
     39844     13282  TIP3      OH2           -44.7923205720       26.1283075841        6.1530936648  W2        13806           0.0000000000
     39845     13282  TIP3      H1            -45.5242205720       26.3566775841        6.7261536648  W2        13806           0.0000000000
     39846     13282  TIP3      H2            -44.3451005720       25.4145775841        6.6078436648  W2        13806           0.0000000000
     39847     13283  TIP3      OH2           -44.8949705720       24.3025675841       15.2207936648  W2        13807           0.0000000000
     39848     13283  TIP3      H1            -44.8150605720       25.0660075841       15.7926436648  W2        13807           0.0000000000
     39849     13283  TIP3      H2            -45.4962005720       24.5818075841       14.5303036648  W2        13807           0.0000000000
     39850     13284  TIP3      OH2           -53.1469505720       26.7589275841        8.0355936648  W2        13808           0.0000000000
     39851     13284  TIP3      H1            -53.4774305720       26.3882675841        7.2172936648  W2        13808           0.0000000000
     39852     13284  TIP3      H2            -52.5585405720       26.0883275841        8.3824236648  W2        13808           0.0000000000
     39853     13285  TIP3      OH2           -51.7802005720       30.1869875841       10.7168136648  W2        13809           0.0000000000
     39854     13285  TIP3      H1            -51.8750705720       29.6082975841        9.9602736648  W2        13809           0.0000000000
     39855     13285  TIP3      H2            -51.0508405720       29.8155575841       11.2130936648  W2        13809           0.0000000000
     39856     13286  TIP3      OH2           -52.7804005720       25.5274875841       11.6690936648  W2        13810           0.0000000000
     39857     13286  TIP3      H1            -52.2151505720       25.6489075841       10.9062136648  W2        13810           0.0000000000
     39858     13286  TIP3      H2            -52.4615105720       26.1649875841       12.3079436648  W2        13810           0.0000000000
     39859     13287  TIP3      OH2           -46.4711805720       31.0306775841       12.4031436648  W2        13811           0.0000000000
     39860     13287  TIP3      H1            -46.7115205720       31.6929875841       13.0510636648  W2        13811           0.0000000000
     39861     13287  TIP3      H2            -46.6693605720       30.1961975841       12.8281036648  W2        13811           0.0000000000
     39862     13288  TIP3      OH2           -51.9003305720       29.9267575841       16.3862836648  W2        13812           0.0000000000
     39863     13288  TIP3      H1            -52.2115805720       30.7090775841       16.8416036648  W2        13812           0.0000000000
     39864     13288  TIP3      H2            -52.5503105720       29.7736675841       15.7004836648  W2        13812           0.0000000000
     39865     13289  TIP3      OH2           -45.9213705720       25.2905975841        3.8382136648  W2        13813           0.0000000000
     39866     13289  TIP3      H1            -45.3418205720       25.4406275841        4.5851036648  W2        13813           0.0000000000
     39867     13289  TIP3      H2            -45.5073705720       25.7613375841        3.1148536648  W2        13813           0.0000000000
     39868     13290  TIP3      OH2           -54.9803405720       26.1248675841       15.6148536648  W2        13814           0.0000000000
     39869     13290  TIP3      H1            -54.9100205720       26.7755475841       16.3133536648  W2        13814           0.0000000000
     39870     13290  TIP3      H2            -55.8711205720       26.2276175841       15.2799436648  W2        13814           0.0000000000
     39871     13291  TIP3      OH2           -48.1948805720       32.0274475841        7.2735236648  W2        13815           0.0000000000
     39872     13291  TIP3      H1            -47.7211205720       32.3230775841        8.0509436648  W2        13815           0.0000000000
     39873     13291  TIP3      H2            -48.7579505720       32.7656075841        7.0404836648  W2        13815           0.0000000000
     39874     13292  TIP3      OH2           -53.6607405720       31.9982575841       17.1496636648  W2        13816           0.0000000000
     39875     13292  TIP3      H1            -53.6532105720       31.8622275841       16.2022136648  W2        13816           0.0000000000
     39876     13292  TIP3      H2            -54.5767005720       31.8810675841       17.4016636648  W2        13816           0.0000000000
     39877     13293  TIP3      OH2           -42.2225305720       17.0406375841        3.6511836648  W2        13817           0.0000000000
     39878     13293  TIP3      H1            -43.1224605720       17.1795375841        3.9462436648  W2        13817           0.0000000000
     39879     13293  TIP3      H2            -41.9706905720       17.8720975841        3.2493536648  W2        13817           0.0000000000
     39880     13294  TIP3      OH2           -54.1566805720       25.8283575841        5.6248736648  W2        13818           0.0000000000
     39881     13294  TIP3      H1            -54.4485505720       26.5965275841        5.1340036648  W2        13818           0.0000000000
     39882     13294  TIP3      H2            -54.8311605720       25.1689775841        5.4620136648  W2        13818           0.0000000000
     39883     13295  TIP3      OH2           -41.0333905720       31.4068775841        2.0275736648  W2        13819           0.0000000000
     39884     13295  TIP3      H1            -40.9600405720       32.3458975841        2.1981036648  W2        13819           0.0000000000
     39885     13295  TIP3      H2            -40.1278805720       31.1017375841        1.9713036648  W2        13819           0.0000000000
     39886     13296  TIP3      OH2           -58.0636705720       28.1912775841       14.4398536648  W2        13820           0.0000000000
     39887     13296  TIP3      H1            -58.5648305720       28.1632175841       13.6248236648  W2        13820           0.0000000000
     39888     13296  TIP3      H2            -58.0583005720       27.2855975841       14.7495836648  W2        13820           0.0000000000
     39889     13297  TIP3      OH2           -58.3134005720       30.9716575841       11.3238736648  W2        13821           0.0000000000
     39890     13297  TIP3      H1            -57.3673405720       30.8273575841       11.3048236648  W2        13821           0.0000000000
     39891     13297  TIP3      H2            -58.4257705720       31.7559375841       11.8609936648  W2        13821           0.0000000000
     39892     13298  TIP3      OH2           -40.1155505720       31.6376275841       17.0062436648  W2        13822           0.0000000000
     39893     13298  TIP3      H1            -40.1648705720       30.6824375841       16.9690036648  W2        13822           0.0000000000
     39894     13298  TIP3      H2            -40.9423205720       31.9051575841       17.4076236648  W2        13822           0.0000000000
     39895     13299  TIP3      OH2           -49.1371505720       31.2115475841       15.8823836648  W2        13823           0.0000000000
     39896     13299  TIP3      H1            -49.0496905720       32.0380075841       16.3572936648  W2        13823           0.0000000000
     39897     13299  TIP3      H2            -50.0006405720       30.8819275841       16.1313136648  W2        13823           0.0000000000
     39898     13300  TIP3      OH2           -48.7225705720       34.9839175841        5.6884436648  W2        13824           0.0000000000
     39899     13300  TIP3      H1            -48.7979705720       34.8626375841        4.7419636648  W2        13824           0.0000000000
     39900     13300  TIP3      H2            -48.6897005720       35.9331875841        5.8069036648  W2        13824           0.0000000000
     39901     13301  TIP3      OH2           -55.0691905720       33.7726175841        7.4693436648  W2        13825           0.0000000000
     39902     13301  TIP3      H1            -54.9171505720       33.4246575841        8.3479936648  W2        13825           0.0000000000
     39903     13301  TIP3      H2            -55.9201505720       33.4163475841        7.2140636648  W2        13825           0.0000000000
     39904     13302  TIP3      OH2           -45.6209705720       34.1379375841        2.6906836648  W2        13826           0.0000000000
     39905     13302  TIP3      H1            -45.2461305720       33.3935475841        2.2199436648  W2        13826           0.0000000000
     39906     13302  TIP3      H2            -45.6166005720       33.8679975841        3.6090136648  W2        13826           0.0000000000
     39907     13303  TIP3      OH2           -45.9521605720       34.0636475841        5.4399036648  W2        13827           0.0000000000
     39908     13303  TIP3      H1            -46.8871805720       34.1638375841        5.6186036648  W2        13827           0.0000000000
     39909     13303  TIP3      H2            -45.6719705720       33.3542475841        6.0182236648  W2        13827           0.0000000000
     39910     13304  TIP3      OH2           -42.9635705720       23.1308775841       17.4864636648  W2        13828           0.0000000000
     39911     13304  TIP3      H1            -43.3708905720       23.6114375841       16.7657936648  W2        13828           0.0000000000
     39912     13304  TIP3      H2            -42.9230005720       22.2254775841       17.1785436648  W2        13828           0.0000000000
     39913     13305  TIP3      OH2           -55.8146205720       29.5148175841       15.4831336648  W2        13829           0.0000000000
     39914     13305  TIP3      H1            -55.5984905720       29.1533775841       16.3427136648  W2        13829           0.0000000000
     39915     13305  TIP3      H2            -56.6701505720       29.1401975841       15.2734836648  W2        13829           0.0000000000
     39916     13306  TIP3      OH2           -53.1958205720       17.9848675841       11.4785536648  W2        13830           0.0000000000
     39917     13306  TIP3      H1            -54.0574505720       17.8976875841       11.0708436648  W2        13830           0.0000000000
     39918     13306  TIP3      H2            -53.2182505720       18.8408775841       11.9063136648  W2        13830           0.0000000000
     39919     13307  TIP3      OH2           -48.5330405720       17.7069075841       14.8532536648  W2        13831           0.0000000000
     39920     13307  TIP3      H1            -48.1127305720       17.2916175841       15.6063136648  W2        13831           0.0000000000
     39921     13307  TIP3      H2            -49.4660805720       17.5282375841       14.9704536648  W2        13831           0.0000000000
     39922     13308  TIP3      OH2           -45.2065505720       21.4624275841       15.7067036648  W2        13832           0.0000000000
     39923     13308  TIP3      H1            -45.7206005720       21.3366475841       16.5043036648  W2        13832           0.0000000000
     39924     13308  TIP3      H2            -45.3620805720       22.3747375841       15.4623236648  W2        13832           0.0000000000
     39925     13309  TIP3      OH2           -44.4440605720       26.3234275841        1.4680036648  W2        13833           0.0000000000
     39926     13309  TIP3      H1            -44.4019805720       26.1008175841        0.5380036648  W2        13833           0.0000000000
     39927     13309  TIP3      H2            -43.5948505720       26.7221375841        1.6579936648  W2        13833           0.0000000000
     39928     13310  TIP3      OH2           -48.8713105720       20.1992475841        2.1383336648  W2        13834           0.0000000000
     39929     13310  TIP3      H1            -49.1248305720       20.2184075841        3.0611436648  W2        13834           0.0000000000
     39930     13310  TIP3      H2            -49.1281005720       19.3277875841        1.8369536648  W2        13834           0.0000000000
     39931     13311  TIP3      OH2           -53.1048105720       22.9503175841       12.5735736648  W2        13835           0.0000000000
     39932     13311  TIP3      H1            -53.7466005720       22.9100475841       13.2825836648  W2        13835           0.0000000000
     39933     13311  TIP3      H2            -53.0676105720       23.8767875841       12.3358736648  W2        13835           0.0000000000
     39934     13312  TIP3      OH2           -53.1079005720       23.1713275841        7.4855736648  W2        13836           0.0000000000
     39935     13312  TIP3      H1            -54.0006105720       22.8309375841        7.4269536648  W2        13836           0.0000000000
     39936     13312  TIP3      H2            -52.6572405720       22.7944175841        6.7298936648  W2        13836           0.0000000000
     39937     13313  TIP3      OH2           -47.5723505720       23.5873575841        6.3026536648  W2        13837           0.0000000000
     39938     13313  TIP3      H1            -47.9813205720       24.4022175841        6.0111336648  W2        13837           0.0000000000
     39939     13313  TIP3      H2            -46.8517305720       23.4473675841        5.6883636648  W2        13837           0.0000000000
     39940     13314  TIP3      OH2           -48.4701905720       23.7629975841       17.7907236648  W2        13838           0.0000000000
     39941     13314  TIP3      H1            -49.0328105720       23.0581575841       18.1115036648  W2        13838           0.0000000000
     39942     13314  TIP3      H2            -47.6438505720       23.6421875841       18.2584836648  W2        13838           0.0000000000
     39943     13315  TIP3      OH2           -46.5675805720       23.0333975841        9.1166236648  W2        13839           0.0000000000
     39944     13315  TIP3      H1            -46.7631305720       23.6390775841        8.4016836648  W2        13839           0.0000000000
     39945     13315  TIP3      H2            -46.3863205720       22.1999175841        8.6822536648  W2        13839           0.0000000000
     39946     13316  TIP3      OH2           -55.3547605720       23.2706675841       14.4407736648  W2        13840           0.0000000000
     39947     13316  TIP3      H1            -55.3928205720       23.6708275841       15.3094836648  W2        13840           0.0000000000
     39948     13316  TIP3      H2            -55.8456505720       22.4539075841       14.5310636648  W2        13840           0.0000000000
     39949     13317  TIP3      OH2           -51.9890205720       20.6448975841        1.2393736648  W2        13841           0.0000000000
     39950     13317  TIP3      H1            -52.4199505720       20.1999075841        1.9691136648  W2        13841           0.0000000000
     39951     13317  TIP3      H2            -52.7071505720       21.0165275841        0.7271236648  W2        13841           0.0000000000
     39952     13318  TIP3      OH2           -58.7466805720       20.3868475841        8.2912436648  W2        13842           0.0000000000
     39953     13318  TIP3      H1            -58.1159105720       20.3580575841        9.0106336648  W2        13842           0.0000000000
     39954     13318  TIP3      H2            -58.2972505720       19.9617175841        7.5608336648  W2        13842           0.0000000000
     39955     13319  TIP3      OH2           -57.4724705720       21.1330475841        3.7152836648  W2        13843           0.0000000000
     39956     13319  TIP3      H1            -56.9983005720       21.7240375841        3.1303736648  W2        13843           0.0000000000
     39957     13319  TIP3      H2            -58.1898305720       21.6633375841        4.0622936648  W2        13843           0.0000000000
     39958     13320  TIP3      OH2           -47.3036605720       24.6715275841       13.7878636648  W2        13844           0.0000000000
     39959     13320  TIP3      H1            -46.9801805720       24.0404975841       13.1449136648  W2        13844           0.0000000000
     39960     13320  TIP3      H2            -47.7437305720       24.1367475841       14.4486036648  W2        13844           0.0000000000
     39961     13321  TIP3      OH2           -50.5263705720       20.5990775841        8.5719836648  W2        13845           0.0000000000
     39962     13321  TIP3      H1            -51.4372605720       20.6557575841        8.8605836648  W2        13845           0.0000000000
     39963     13321  TIP3      H2            -50.0210805720       20.5386275841        9.3827036648  W2        13845           0.0000000000
     39964     13322  TIP3      OH2           -55.6980305720       22.2277075841        7.3987436648  W2        13846           0.0000000000
     39965     13322  TIP3      H1            -56.5872305720       22.3272575841        7.0587036648  W2        13846           0.0000000000
     39966     13322  TIP3      H2            -55.4015405720       21.3860075841        7.0525336648  W2        13846           0.0000000000
     39967     13323  TIP3      OH2           -52.0448505720       22.2279675841        5.0552036648  W2        13847           0.0000000000
     39968     13323  TIP3      H1            -51.1133005720       22.3569675841        5.2335136648  W2        13847           0.0000000000
     39969     13323  TIP3      H2            -52.2598205720       22.8973975841        4.4056736648  W2        13847           0.0000000000
     39970     13324  TIP3      OH2           -46.1211805720       19.8337075841       11.8361636648  W2        13848           0.0000000000
     39971     13324  TIP3      H1            -46.7980205720       19.9650175841       12.5001336648  W2        13848           0.0000000000
     39972     13324  TIP3      H2            -46.6066905720       19.6786575841       11.0259336648  W2        13848           0.0000000000
     39973     13325  TIP3      OH2           -53.3708305720       23.4221875841        2.6218136648  W2        13849           0.0000000000
     39974     13325  TIP3      H1            -53.9133205720       23.0425675841        1.9305736648  W2        13849           0.0000000000
     39975     13325  TIP3      H2            -52.5373405720       23.6166575841        2.1932236648  W2        13849           0.0000000000
     39976     13326  TIP3      OH2           -55.2356905720       27.9793775841       17.7209736648  W2        13851           0.0000000000
     39977     13326  TIP3      H1            -54.5034505720       28.2339675841       18.2824236648  W2        13851           0.0000000000
     39978     13326  TIP3      H2            -56.0158205720       28.1839175841       18.2365136648  W2        13851           0.0000000000
     39979     13327  TIP3      OH2           -49.2064005720       23.3863775841       10.4589436648  W2        13852           0.0000000000
     39980     13327  TIP3      H1            -48.6420605720       22.8400375841        9.9119036648  W2        13852           0.0000000000
     39981     13327  TIP3      H2            -49.3540605720       22.8645675841       11.2477036648  W2        13852           0.0000000000
     39982     13328  TIP3      OH2           -54.2044305720       19.5229875841        6.8774236648  W2        13853           0.0000000000
     39983     13328  TIP3      H1            -54.5214805720       18.6205175841        6.8419636648  W2        13853           0.0000000000
     39984     13328  TIP3      H2            -53.4230205720       19.5247275841        6.3245836648  W2        13853           0.0000000000
     39985     13329  TIP3      OH2           -50.5798105720       21.7749875841       12.8729836648  W2        13854           0.0000000000
     39986     13329  TIP3      H1            -51.4152805720       22.2289375841       12.9832236648  W2        13854           0.0000000000
     39987     13329  TIP3      H2            -50.0557505720       22.0508375841       13.6249736648  W2        13854           0.0000000000
     39988     13330  TIP3      OH2           -50.0355505720       27.9877575841        4.5576236648  W2        13855           0.0000000000
     39989     13330  TIP3      H1            -50.7804505720       27.4802875841        4.2354136648  W2        13855           0.0000000000
     39990     13330  TIP3      H2            -50.1698305720       28.0365575841        5.5041036648  W2        13855           0.0000000000
     39991     13331  TIP3      OH2           -42.8856605720       27.1205775841       13.3443836648  W2        13856           0.0000000000
     39992     13331  TIP3      H1            -42.2437805720       27.5772075841       12.8006036648  W2        13856           0.0000000000
     39993     13331  TIP3      H2            -43.7159705720       27.2338175841       12.8817936648  W2        13856           0.0000000000
     39994     13332  TIP3      OH2           -46.1378705720       20.8017475841        2.7568836648  W2        13857           0.0000000000
     39995     13332  TIP3      H1            -47.0764505720       20.9133075841        2.6057636648  W2        13857           0.0000000000
     39996     13332  TIP3      H2            -45.8406605720       21.6584375841        3.0634536648  W2        13857           0.0000000000
     39997     13333  TIP3      OH2           -48.5163405720       28.1720875841       15.7945336648  W2        13858           0.0000000000
     39998     13333  TIP3      H1            -48.8617305720       27.7903275841       16.6014936648  W2        13858           0.0000000000
     39999     13333  TIP3      H2            -48.7163305720       29.1054475841       15.8658236648  W2        13858           0.0000000000
     40000     13334  TIP3      OH2           -45.4195205720       22.6690175841        4.4176236648  W2        13859           0.0000000000
     40001     13334  TIP3      H1            -44.5276205720       22.5315175841        4.7367436648  W2        13859           0.0000000000
     40002     13334  TIP3      H2            -45.3631605720       23.4596275841        3.8809736648  W2        13859           0.0000000000
     40003     13335  TIP3      OH2           -54.9107205720       27.2827575841       10.3274136648  W2        13860           0.0000000000
     40004     13335  TIP3      H1            -54.1660005720       27.2803275841        9.7260636648  W2        13860           0.0000000000
     40005     13335  TIP3      H2            -54.8330605720       26.4591375841       10.8089236648  W2        13860           0.0000000000
     40006     13336  TIP3      OH2           -47.9101405720       29.4461875841        3.5830836648  W2        13861           0.0000000000
     40007     13336  TIP3      H1            -48.2053005720       30.2729775841        3.9645636648  W2        13861           0.0000000000
     40008     13336  TIP3      H2            -48.6131405720       28.8268775841        3.7792236648  W2        13861           0.0000000000
     40009     13337  TIP3      OH2           -57.9027505720       25.7434475841       15.6422636648  W2        13862           0.0000000000
     40010     13337  TIP3      H1            -57.6798905720       25.3254075841       16.4740136648  W2        13862           0.0000000000
     40011     13337  TIP3      H2            -58.5047405720       25.1309475841       15.2195436648  W2        13862           0.0000000000
     40012     13338  TIP3      OH2           -46.2659805720       30.6336375841       15.7450336648  W2        13864           0.0000000000
     40013     13338  TIP3      H1            -47.1665505720       30.8168975841       15.4774236648  W2        13864           0.0000000000
     40014     13338  TIP3      H2            -46.2318705720       30.8925675841       16.6659136648  W2        13864           0.0000000000
     40015     13339  TIP3      OH2           -40.5346505720       22.8784275841        4.1122936648  W2        13865           0.0000000000
     40016     13339  TIP3      H1            -41.0890205720       22.4822275841        3.4400436648  W2        13865           0.0000000000
     40017     13339  TIP3      H2            -40.4342905720       23.7889475841        3.8346236648  W2        13865           0.0000000000
     40018     13340  TIP3      OH2           -40.5714505720       28.6785975841       16.9494436648  W2        13866           0.0000000000
     40019     13340  TIP3      H1            -41.4226005720       28.9169775841       16.5820836648  W2        13866           0.0000000000
     40020     13340  TIP3      H2            -39.9811105720       28.6619175841       16.1961536648  W2        13866           0.0000000000
     40021     13341  TIP3      OH2           -42.2394805720       31.6644675841        4.5775036648  W2        13867           0.0000000000
     40022     13341  TIP3      H1            -42.6123705720       30.8388475841        4.8865636648  W2        13867           0.0000000000
     40023     13341  TIP3      H2            -41.9621305720       31.4814075841        3.6798436648  W2        13867           0.0000000000
     40024     13342  TIP3      OH2           -45.0790905720       26.4724175841       11.5986936648  W2        13868           0.0000000000
     40025     13342  TIP3      H1            -46.0074005720       26.2406075841       11.5716236648  W2        13868           0.0000000000
     40026     13342  TIP3      H2            -44.6279805720       25.6953975841       11.2685736648  W2        13868           0.0000000000
     40027     13343  TIP3      OH2           -52.5357805720       30.8005775841        7.7315636648  W2        13869           0.0000000000
     40028     13343  TIP3      H1            -52.0085605720       31.5740175841        7.5314436648  W2        13869           0.0000000000
     40029     13343  TIP3      H2            -53.4159305720       31.0254975841        7.4299636648  W2        13869           0.0000000000
     40030     13344  TIP3      OH2           -56.7810105720       25.6629875841        2.3188036648  W2        13870           0.0000000000
     40031     13344  TIP3      H1            -56.1650205720       26.2897075841        2.6982836648  W2        13870           0.0000000000
     40032     13344  TIP3      H2            -57.6427505720       25.9789675841        2.5904536648  W2        13870           0.0000000000
     40033     13345  TIP3      OH2           -51.1085505720       28.4635675841        7.3079936648  W2        13871           0.0000000000
     40034     13345  TIP3      H1            -51.3495505720       29.3890075841        7.3495236648  W2        13871           0.0000000000
     40035     13345  TIP3      H2            -51.8491905720       28.0046975841        7.7043836648  W2        13871           0.0000000000
     40036     13346  TIP3      OH2           -50.5938905720       32.6129275841       13.6231036648  W2        13872           0.0000000000
     40037     13346  TIP3      H1            -50.2314205720       33.4674875841       13.3895436648  W2        13872           0.0000000000
     40038     13346  TIP3      H2            -50.0623705720       32.3210875841       14.3637336648  W2        13872           0.0000000000
     40039     13347  TIP3      OH2           -52.4254705720       33.4853275841        6.8532136648  W2        13873           0.0000000000
     40040     13347  TIP3      H1            -53.3754205720       33.5910675841        6.9045436648  W2        13873           0.0000000000
     40041     13347  TIP3      H2            -52.0736605720       34.3060675841        7.1979636648  W2        13873           0.0000000000
     40042     13348  TIP3      OH2           -47.0498105720       28.7119975841       13.3236636648  W2        13874           0.0000000000
     40043     13348  TIP3      H1            -47.4756805720       28.4841675841       14.1500636648  W2        13874           0.0000000000
     40044     13348  TIP3      H2            -46.4692305720       27.9731775841       13.1411936648  W2        13874           0.0000000000
     40045     13349  TIP3      OH2           -44.8469205720       29.6410475841        2.3975636648  W2        13875           0.0000000000
     40046     13349  TIP3      H1            -44.4936105720       29.2610275841        3.2019136648  W2        13875           0.0000000000
     40047     13349  TIP3      H2            -45.7955705720       29.5475275841        2.4844936648  W2        13875           0.0000000000
     40048     13350  TIP3      OH2           -44.3913905720       33.2639475841       15.7931436648  W2        13876           0.0000000000
     40049     13350  TIP3      H1            -44.9930705720       32.7082375841       15.2977736648  W2        13876           0.0000000000
     40050     13350  TIP3      H2            -44.1100205720       33.9309275841       15.1668836648  W2        13876           0.0000000000
     40051     13351  TIP3      OH2           -40.3434805720       34.1202975841        2.5985836648  W2        13877           0.0000000000
     40052     13351  TIP3      H1            -39.5996905720       34.7063475841        2.4587436648  W2        13877           0.0000000000
     40053     13351  TIP3      H2            -41.0376705720       34.6888775841        2.9318236648  W2        13877           0.0000000000
     40054     13352  TIP3      OH2           -56.2688005720       20.4967175841       15.2004036648  W2        13878           0.0000000000
     40055     13352  TIP3      H1            -57.1615705720       20.8352575841       15.1328036648  W2        13878           0.0000000000
     40056     13352  TIP3      H2            -56.3675205720       19.6413275841       15.6184836648  W2        13878           0.0000000000
     40057     13353  TIP3      OH2           -43.9809905720       28.3132475841        4.6243536648  W2        13879           0.0000000000
     40058     13353  TIP3      H1            -44.2582305720       27.5851775841        5.1804636648  W2        13879           0.0000000000
     40059     13353  TIP3      H2            -43.0536905720       28.4324475841        4.8296136648  W2        13879           0.0000000000
     40060     13354  TIP3      OH2           -56.6176005720       32.3011575841       13.6353436648  W2        13880           0.0000000000
     40061     13354  TIP3      H1            -56.4005705720       31.3693975841       13.6043136648  W2        13880           0.0000000000
     40062     13354  TIP3      H2            -56.3712505720       32.5756575841       14.5186236648  W2        13880           0.0000000000
     40063     13355  TIP3      OH2           -50.7561405720       30.7526575841        0.8445636648  W2        13881           0.0000000000
     40064     13355  TIP3      H1            -50.5171605720       30.0044675841        0.2974536648  W2        13881           0.0000000000
     40065     13355  TIP3      H2            -51.0250105720       30.3648275841        1.6773436648  W2        13881           0.0000000000
     40066     13356  TIP3      OH2           -51.8190805720       30.3230375841        3.3008236648  W2        13882           0.0000000000
     40067     13356  TIP3      H1            -51.6722805720       29.8030175841        4.0909136648  W2        13882           0.0000000000
     40068     13356  TIP3      H2            -51.8219105720       31.2297975841        3.6074136648  W2        13882           0.0000000000
     40069     13357  TIP3      OH2           -55.3659705720       27.5753675841        3.8113636648  W2        13883           0.0000000000
     40070     13357  TIP3      H1            -56.0520405720       27.9276175841        4.3783336648  W2        13883           0.0000000000
     40071     13357  TIP3      H2            -54.8431805720       28.3383275841        3.5647936648  W2        13883           0.0000000000
     40072     13358  TIP3      OH2           -47.5344605720       20.2377475841       14.0902636648  W2        13884           0.0000000000
     40073     13358  TIP3      H1            -46.8356705720       20.3116175841       14.7402336648  W2        13884           0.0000000000
     40074     13358  TIP3      H2            -47.9153205720       19.3732475841       14.2445536648  W2        13884           0.0000000000
     40075     13359  TIP3      OH2           -46.7499705720       19.8899175841        5.1874936648  W2        13885           0.0000000000
     40076     13359  TIP3      H1            -46.5301405720       20.3614575841        4.3840336648  W2        13885           0.0000000000
     40077     13359  TIP3      H2            -46.1915705720       20.2841775841        5.8575536648  W2        13885           0.0000000000
     40078     13360  TIP3      OH2           -49.0813605720       32.0203975841        4.0502436648  W2        13886           0.0000000000
     40079     13360  TIP3      H1            -49.8977505720       32.5173675841        4.1026736648  W2        13886           0.0000000000
     40080     13360  TIP3      H2            -48.5517305720       32.4957475841        3.4101236648  W2        13886           0.0000000000
     40081     13361  TIP3      OH2           -49.5499805720       21.6177975841        6.0223336648  W2        13887           0.0000000000
     40082     13361  TIP3      H1            -48.7377205720       22.1221175841        6.0685036648  W2        13887           0.0000000000
     40083     13361  TIP3      H2            -49.7946805720       21.4727675841        6.9362936648  W2        13887           0.0000000000
     40084     13362  TIP3      OH2           -49.0143405720       22.6040675841       15.2069936648  W2        13888           0.0000000000
     40085     13362  TIP3      H1            -48.8953105720       23.1776075841       15.9640336648  W2        13888           0.0000000000
     40086     13362  TIP3      H2            -48.3588805720       21.9160075841       15.3217736648  W2        13888           0.0000000000
     40087     13363  TIP3      OH2           -48.6663105720       18.6990975841        6.9604436648  W2        13889           0.0000000000
     40088     13363  TIP3      H1            -49.0129605720       19.3161575841        7.6048736648  W2        13889           0.0000000000
     40089     13363  TIP3      H2            -48.0076205720       19.1996675841        6.4789936648  W2        13889           0.0000000000
     40090     13364  TIP3      OH2           -51.7430505720       33.0641175841        4.0319336648  W2        13890           0.0000000000
     40091     13364  TIP3      H1            -51.5821805720       33.8638675841        3.5311936648  W2        13890           0.0000000000
     40092     13364  TIP3      H2            -51.9402705720       33.3707175841        4.9169936648  W2        13890           0.0000000000
     40093     13365  TIP3      OH2           -53.0086105720       19.7620375841        3.6476936648  W2        13891           0.0000000000
     40094     13365  TIP3      H1            -53.0921305720       20.6503475841        3.9943336648  W2        13891           0.0000000000
     40095     13365  TIP3      H2            -52.1185805720       19.4967075841        3.8793736648  W2        13891           0.0000000000
     40096     13366  TIP3      OH2           -42.8097605720       20.5110975841       16.0419636648  W2        13892           0.0000000000
     40097     13366  TIP3      H1            -43.7261805720       20.7732675841       15.9543336648  W2        13892           0.0000000000
     40098     13366  TIP3      H2            -42.4742605720       20.5079975841       15.1454936648  W2        13892           0.0000000000
     40099     13367  TIP3      OH2           -44.2076605720       24.2611975841       10.1376936648  W2        13893           0.0000000000
     40100     13367  TIP3      H1            -45.0052205720       23.8462175841        9.8091936648  W2        13893           0.0000000000
     40101     13367  TIP3      H2            -43.7625505720       23.5705675841       10.6287436648  W2        13893           0.0000000000
     40102     13368  TIP3      OH2           -54.7500805720       30.1892575841        2.7081436648  W2        13894           0.0000000000
     40103     13368  TIP3      H1            -54.1579305720       30.8887375841        2.9843836648  W2        13894           0.0000000000
     40104     13368  TIP3      H2            -54.2907805720       29.7562075841        1.9886036648  W2        13894           0.0000000000
     40105     13369  TIP3      OH2           -56.4341605720       22.8535575841        1.8240836648  W2        13895           0.0000000000
     40106     13369  TIP3      H1            -56.4789005720       23.7928675841        2.0027836648  W2        13895           0.0000000000
     40107     13369  TIP3      H2            -57.3218405720       22.6180475841        1.5542936648  W2        13895           0.0000000000
     40108     13370  TIP3      OH2           -43.1212005720       33.5174475841       11.7600436648  W2        13896           0.0000000000
     40109     13370  TIP3      H1            -43.2767705720       34.1958875841       11.1029736648  W2        13896           0.0000000000
     40110     13370  TIP3      H2            -42.1885605720       33.5893775841       11.9631036648  W2        13896           0.0000000000
     40111     13371  TIP3      OH2           -55.6259605720       17.6352175841       10.4971836648  W2        13897           0.0000000000
     40112     13371  TIP3      H1            -55.8549805720       17.6944675841        9.5696836648  W2        13897           0.0000000000
     40113     13371  TIP3      H2            -56.0686205720       16.8437675841       10.8035936648  W2        13897           0.0000000000
     40114     13372  TIP3      OH2           -56.6956305720       31.5759275841        6.6577636648  W2        13898           0.0000000000
     40115     13372  TIP3      H1            -57.5277705720       32.0481975841        6.6849036648  W2        13898           0.0000000000
     40116     13372  TIP3      H2            -56.1498005720       32.0856875841        6.0590736648  W2        13898           0.0000000000
     40117     13373  TIP3      OH2           -48.7179605720       32.6157975841        0.9831636648  W2        13901           0.0000000000
     40118     13373  TIP3      H1            -49.3618605720       31.9846575841        1.3045336648  W2        13901           0.0000000000
     40119     13373  TIP3      H2            -47.9561305720       32.0845975841        0.7515136648  W2        13901           0.0000000000
     40120     13374  TIP3      OH2           -44.1136705720       32.4327875841        1.2169636648  W2        13903           0.0000000000
     40121     13374  TIP3      H1            -43.8306305720       31.6383075841        1.6696536648  W2        13903           0.0000000000
     40122     13374  TIP3      H2            -43.3738805720       32.6658875841        0.6560736648  W2        13903           0.0000000000
     40123     13375  TIP3      OH2           -53.1589405720       28.3422775841        1.0744536648  W2        13905           0.0000000000
     40124     13375  TIP3      H1            -53.0945305720       27.5482375841        1.6050936648  W2        13905           0.0000000000
     40125     13375  TIP3      H2            -52.5060205720       28.2235575841        0.3846536648  W2        13905           0.0000000000
     40126     13376  TIP3      OH2           -47.8066005720       29.3894475841        0.8102536648  W2        13907           0.0000000000
     40127     13376  TIP3      H1            -48.0751905720       29.5696575841        1.7111436648  W2        13907           0.0000000000
     40128     13376  TIP3      H2            -48.0130405720       28.4640675841        0.6788336648  W2        13907           0.0000000000
     40129     13377  TIP3      OH2           -45.1101805720       27.8842475841       15.7578636648  W2        13908           0.0000000000
     40130     13377  TIP3      H1            -44.3647005720       28.4726175841       15.6382636648  W2        13908           0.0000000000
     40131     13377  TIP3      H2            -45.8675005720       28.4662175841       15.8211736648  W2        13908           0.0000000000
     40132     13378  TIP3      OH2           -52.0095605720       26.3148975841        3.3802536648  W2        13910           0.0000000000
     40133     13378  TIP3      H1            -52.4693605720       25.8307275841        4.0661036648  W2        13910           0.0000000000
     40134     13378  TIP3      H2            -51.7546905720       25.6464375841        2.7443036648  W2        13910           0.0000000000
     40135     13379  TIP3      OH2           -52.7206305720       24.2076075841       15.7362136648  W2        13911           0.0000000000
     40136     13379  TIP3      H1            -53.3390205720       24.8822675841       16.0166836648  W2        13911           0.0000000000
     40137     13379  TIP3      H2            -52.3765105720       24.5289975841       14.9028336648  W2        13911           0.0000000000
     40138     13380  TIP3      OH2           -50.9385205720       24.5580775841        1.6425736648  W2        13912           0.0000000000
     40139     13380  TIP3      H1            -51.1190205720       24.4031975841        0.7154036648  W2        13912           0.0000000000
     40140     13380  TIP3      H2            -49.9884705720       24.6659475841        1.6873636648  W2        13912           0.0000000000
     40141     13381  TIP3      OH2           -41.5486905720       26.9124975841        1.0883836648  W2        13914           0.0000000000
     40142     13381  TIP3      H1            -41.8222105720       26.4880475841        0.2752136648  W2        13914           0.0000000000
     40143     13381  TIP3      H2            -41.5092805720       27.8439475841        0.8714236648  W2        13914           0.0000000000
     40144     13382  TIP3      OH2           -52.3812605720       21.5626875841       16.8185236648  W2        13915           0.0000000000
     40145     13382  TIP3      H1            -52.2311705720       20.8338175841       16.2164936648  W2        13915           0.0000000000
     40146     13382  TIP3      H2            -52.3790205720       22.3398575841       16.2597436648  W2        13915           0.0000000000
     40147     13383  TIP3      OH2           -51.9686905720       19.9322675841       14.3112636648  W2        13916           0.0000000000
     40148     13383  TIP3      H1            -51.4329405720       20.3839375841       13.6591936648  W2        13916           0.0000000000
     40149     13383  TIP3      H2            -52.8207305720       19.8242475841       13.8886736648  W2        13916           0.0000000000
     40150     13384  TIP3      OH2           -50.3868505720       25.3718875841       14.5507836648  W2        13917           0.0000000000
     40151     13384  TIP3      H1            -49.6363705720       25.2156375841       13.9775636648  W2        13917           0.0000000000
     40152     13384  TIP3      H2            -50.7260205720       26.2235475841       14.2753336648  W2        13917           0.0000000000
     40153     13385  TIP3      OH2           -44.6545105720       25.9755875841       17.6565836648  W2        13919           0.0000000000
     40154     13385  TIP3      H1            -44.9360105720       26.6850475841       17.0789636648  W2        13919           0.0000000000
     40155     13385  TIP3      H2            -43.7120805720       25.9028875841       17.5057036648  W2        13919           0.0000000000
     40156     13386  TIP3      OH2           -51.1631405720       17.3888375841       14.7426236648  W2        13921           0.0000000000
     40157     13386  TIP3      H1            -51.2611805720       18.3351575841       14.6372436648  W2        13921           0.0000000000
     40158     13386  TIP3      H2            -51.9055205720       17.0162175841       14.2669736648  W2        13921           0.0000000000
     40159     13387  TIP3      OH2           -47.1834305720       20.8377275841       17.3818136648  W2        13923           0.0000000000
     40160     13387  TIP3      H1            -48.1308905720       20.8696975841       17.5141436648  W2        13923           0.0000000000
     40161     13387  TIP3      H2            -46.8707605720       20.2124375841       18.0356336648  W2        13923           0.0000000000
     40162     13388  TIP3      OH2           -50.9413305720       16.6825775841       17.4139036648  W2        13926           0.0000000000
     40163     13388  TIP3      H1            -50.2294905720       16.0427975841       17.3998136648  W2        13926           0.0000000000
     40164     13388  TIP3      H2            -51.0422905720       16.9494075841       16.5002136648  W2        13926           0.0000000000
     40165     13389  TIP3      OH2           -51.0413505720       35.2484475841        2.6439336648  W2        13928           0.0000000000
     40166     13389  TIP3      H1            -50.1082805720       35.4063175841        2.7877736648  W2        13928           0.0000000000
     40167     13389  TIP3      H2            -51.3054705720       35.9237475841        2.0190836648  W2        13928           0.0000000000
     40168     13390  TIP3      OH2           -57.4728605720       29.8848275841        2.1267436648  W2        13929           0.0000000000
     40169     13390  TIP3      H1            -56.5589405720       29.9637175841        2.4001336648  W2        13929           0.0000000000
     40170     13390  TIP3      H2            -57.4655505720       29.1977875841        1.4603036648  W2        13929           0.0000000000
     40171     13391  TIP3      OH2           -58.8238005720       35.2776775841        7.2041336648  W2        13930           0.0000000000
     40172     13391  TIP3      H1            -59.4710905720       34.8158475841        6.6712536648  W2        13930           0.0000000000
     40173     13391  TIP3      H2            -58.4693405720       34.6060075841        7.7867536648  W2        13930           0.0000000000
     40174     13392  TIP3      OH2           -57.9538805720       33.3583775841        9.0087536648  W2        13931           0.0000000000
     40175     13392  TIP3      H1            -58.2882005720       32.4781075841        9.1807736648  W2        13931           0.0000000000
     40176     13392  TIP3      H2            -57.7316405720       33.7038775841        9.8733136648  W2        13931           0.0000000000
     40177     13393  TIP3      OH2           -40.4054005720       34.1680175841       11.9892336648  W2        13932           0.0000000000
     40178     13393  TIP3      H1            -40.4267305720       34.3528575841       12.9281736648  W2        13932           0.0000000000
     40179     13393  TIP3      H2            -39.7147805720       34.7364175841       11.6483736648  W2        13932           0.0000000000
     40180     13394  TIP3      OH2           -40.8421105720       33.7351275841       14.9111436648  W2        13933           0.0000000000
     40181     13394  TIP3      H1            -41.3292405720       32.9995375841       14.5398836648  W2        13933           0.0000000000
     40182     13394  TIP3      H2            -40.2928405720       33.3415175841       15.5890836648  W2        13933           0.0000000000
     40183     13395  TIP3      OH2           -41.0904105720       27.7813075841        5.0634236648  W2        13935           0.0000000000
     40184     13395  TIP3      H1            -40.2402705720       28.2023975841        5.1905836648  W2        13935           0.0000000000
     40185     13395  TIP3      H2            -41.0849005720       27.0413175841        5.6705636648  W2        13935           0.0000000000
     40186     13396  TIP3      OH2           -40.6958505720       25.8350475841        6.8869936648  W2        13936           0.0000000000
     40187     13396  TIP3      H1            -41.4223905720       25.3553075841        7.2847536648  W2        13936           0.0000000000
     40188     13396  TIP3      H2            -40.1145205720       26.0405175841        7.6191536648  W2        13936           0.0000000000
     40189     13397  TIP3      OH2           -40.9367305720       28.6197975841       11.8347536648  W2        13937           0.0000000000
     40190     13397  TIP3      H1            -40.1033105720       28.2417975841       11.5541136648  W2        13937           0.0000000000
     40191     13397  TIP3      H2            -40.8247005720       29.5629175841       11.7156636648  W2        13937           0.0000000000
     40192     13398  TIP3      OH2           -42.4505005720       31.4975475841       14.1415936648  W2        13938           0.0000000000
     40193     13398  TIP3      H1            -43.0979705720       31.8226975841       14.7671136648  W2        13938           0.0000000000
     40194     13398  TIP3      H2            -42.9681005720       31.0573175841       13.4674236648  W2        13938           0.0000000000
     40195     13399  TIP3      OH2           -40.4275405720       25.7358975841        3.2781236648  W2        13939           0.0000000000
     40196     13399  TIP3      H1            -40.9494305720       26.0923075841        2.5592136648  W2        13939           0.0000000000
     40197     13399  TIP3      H2            -40.4606205720       26.4106775841        3.9562136648  W2        13939           0.0000000000
     40198     13400  TIP3      OH2           -42.0786405720       22.9754575841        1.8288336648  W2        13940           0.0000000000
     40199     13400  TIP3      H1            -41.9822005720       23.6421575841        1.1488036648  W2        13940           0.0000000000
     40200     13400  TIP3      H2            -42.2186805720       22.1600875841        1.3473836648  W2        13940           0.0000000000
     40201     13401  TIP3      OH2           -42.9091705720       24.3556975841        7.4498636648  W2        13941           0.0000000000
     40202     13401  TIP3      H1            -43.0592905720       23.4105575841        7.4296436648  W2        13941           0.0000000000
     40203     13401  TIP3      H2            -43.2627205720       24.6368375841        8.2937736648  W2        13941           0.0000000000
     40204     13402  TIP3      OH2           -57.8739305720       26.4339175841       11.4602436648  W2        13942           0.0000000000
     40205     13402  TIP3      H1            -57.6896405720       26.3520875841       10.5245336648  W2        13942           0.0000000000
     40206     13402  TIP3      H2            -57.0246405720       26.3096175841       11.8838836648  W2        13942           0.0000000000
     40207     13403  TIP3      OH2           -42.0528805720       26.3260275841       17.0886936648  W2        13943           0.0000000000
     40208     13403  TIP3      H1            -41.4701505720       25.5912575841       17.2804136648  W2        13943           0.0000000000
     40209     13403  TIP3      H2            -41.4889505720       27.0980575841       17.1352736648  W2        13943           0.0000000000
     40210     13404  TIP3      OH2           -40.5561705720       24.2286075841       17.7732336648  W2        13944           0.0000000000
     40211     13404  TIP3      H1            -41.4195005720       23.8498175841       17.6077036648  W2        13944           0.0000000000
     40212     13404  TIP3      H2            -39.9518005720       23.4900875841       17.6988136648  W2        13944           0.0000000000
     40213     13405  TIP3      OH2           -42.8312605720       20.3834375841        0.9463836648  W2        13945           0.0000000000
     40214     13405  TIP3      H1            -42.2206805720       20.0121175841        1.5832036648  W2        13945           0.0000000000
     40215     13405  TIP3      H2            -43.6681105720       19.9621275841        1.1423836648  W2        13945           0.0000000000
     40216     13406  TIP3      OH2           -43.1986905720       21.9382775841        5.9123736648  W2        13946           0.0000000000
     40217     13406  TIP3      H1            -42.9189805720       21.0313175841        6.0365436648  W2        13946           0.0000000000
     40218     13406  TIP3      H2            -42.4395205720       22.3724275841        5.5232936648  W2        13946           0.0000000000
     40219     13407  TIP3      OH2           -42.5868605720       22.5200175841       11.3482636648  W2        13947           0.0000000000
     40220     13407  TIP3      H1            -41.6540605720       22.7320075841       11.3138636648  W2        13947           0.0000000000
     40221     13407  TIP3      H2            -42.8221105720       22.6212275841       12.2705636648  W2        13947           0.0000000000
     40222     13408  TIP3      OH2           -42.5576705720       23.2565475841       14.1242036648  W2        13948           0.0000000000
     40223     13408  TIP3      H1            -43.4005405720       23.5245875841       14.4901836648  W2        13948           0.0000000000
     40224     13408  TIP3      H2            -42.1152405720       24.0787375841       13.9133136648  W2        13948           0.0000000000
     40225     13409  TIP3      OH2           -58.2764505720       21.7044175841       17.6011236648  W2        13949           0.0000000000
     40226     13409  TIP3      H1            -57.3569605720       21.5822475841       17.8374336648  W2        13949           0.0000000000
     40227     13409  TIP3      H2            -58.7260005720       20.9543875841       17.9904736648  W2        13949           0.0000000000
     40228     13410  TIP3      OH2           -42.5852105720       19.2012075841        5.9605736648  W2        13951           0.0000000000
     40229     13410  TIP3      H1            -42.4027105720       18.7523575841        6.7860736648  W2        13951           0.0000000000
     40230     13410  TIP3      H2            -43.1849205720       18.6166475841        5.4970336648  W2        13951           0.0000000000
     40231     13411  TIP3      OH2           -57.0552005720       20.0165775841       10.4924136648  W2        13952           0.0000000000
     40232     13411  TIP3      H1            -56.6100405720       19.2248275841       10.7943836648  W2        13952           0.0000000000
     40233     13411  TIP3      H2            -56.5889005720       20.7330975841       10.9229736648  W2        13952           0.0000000000
     40234     13412  TIP3      OH2           -58.7511705720       23.0158775841       11.5614336648  W2        13953           0.0000000000
     40235     13412  TIP3      H1            -58.2591905720       22.7949275841       10.7706336648  W2        13953           0.0000000000
     40236     13412  TIP3      H2            -58.3890805720       23.8562175841       11.8423836648  W2        13953           0.0000000000
     40237     13413  TIP3      OH2           -40.7185905720       19.2690175841        2.4886036648  W2        13955           0.0000000000
     40238     13413  TIP3      H1            -40.3063305720       18.5475875841        2.0134036648  W2        13955           0.0000000000
     40239     13413  TIP3      H2            -40.0369405720       19.9384775841        2.5470336648  W2        13955           0.0000000000
     40240     13414  TIP3      OH2           -58.4375205720       19.2737875841        5.6156736648  W2        13956           0.0000000000
     40241     13414  TIP3      H1            -59.3626805720       19.4824475841        5.4862236648  W2        13956           0.0000000000
     40242     13414  TIP3      H2            -57.9835305720       19.7578675841        4.9259036648  W2        13956           0.0000000000
     40243     13415  TIP3      OH2           -43.6668005720       34.2579575841        7.5614136648  W2        13957           0.0000000000
     40244     13415  TIP3      H1            -43.0145105720       33.9101675841        6.9533236648  W2        13957           0.0000000000
     40245     13415  TIP3      H2            -43.1564205720       34.7462775841        8.2073836648  W2        13957           0.0000000000
     40246     13416  TIP3      OH2           -58.4739805720       18.0116875841       13.9599236648  W2        13958           0.0000000000
     40247     13416  TIP3      H1            -59.1389305720       17.7657175841       14.6030136648  W2        13958           0.0000000000
     40248     13416  TIP3      H2            -58.9168505720       18.6337275841       13.3827236648  W2        13958           0.0000000000
     40249     13417  TIP3      OH2           -53.3277605720       32.1612175841       14.3629036648  W2        13960           0.0000000000
     40250     13417  TIP3      H1            -53.7526505720       32.9710675841       14.0803636648  W2        13960           0.0000000000
     40251     13417  TIP3      H2            -52.4234805720       32.2466275841       14.0608836648  W2        13960           0.0000000000
     40252     13418  TIP3      OH2           -49.0166205720       33.5602175841       17.3222736648  W2        13961           0.0000000000
     40253     13418  TIP3      H1            -48.8318705720       33.2268275841       18.2003036648  W2        13961           0.0000000000
     40254     13418  TIP3      H2            -48.1701705720       33.8700775841       17.0001936648  W2        13961           0.0000000000
     40255     13419  TIP3      OH2           -46.6715805720       34.8461075841       16.5664136648  W2        13962           0.0000000000
     40256     13419  TIP3      H1            -45.9946905720       34.2133375841       16.3263336648  W2        13962           0.0000000000
     40257     13419  TIP3      H2            -46.3497005720       35.2471575841       17.3737436648  W2        13962           0.0000000000
     40258     13420  TIP3      OH2           -41.7542005720       17.4356575841       15.6459136648  W2        13963           0.0000000000
     40259     13420  TIP3      H1            -42.5668505720       17.7606875841       15.2583836648  W2        13963           0.0000000000
     40260     13420  TIP3      H2            -41.5213505720       16.6755075841       15.1128236648  W2        13963           0.0000000000
     40261     13421  TIP3      OH2           -55.9260905720       35.4176075841       14.4104336648  W2        13964           0.0000000000
     40262     13421  TIP3      H1            -56.6464505720       35.8577075841       13.9592036648  W2        13964           0.0000000000
     40263     13421  TIP3      H2            -56.2916905720       35.1670775841       15.2588336648  W2        13964           0.0000000000
     40264     13422  TIP3      OH2           -53.4588305720       35.0179975841       13.4401536648  W2        13965           0.0000000000
     40265     13422  TIP3      H1            -54.3236105720       35.0898475841       13.8441636648  W2        13965           0.0000000000
     40266     13422  TIP3      H2            -53.5139305720       35.5647275841       12.6564036648  W2        13965           0.0000000000
     40267     13423  TIP3      OH2           -48.7482705720       34.9058875841       12.6157536648  W2        13966           0.0000000000
     40268     13423  TIP3      H1            -49.2048705720       35.4348575841       11.9615936648  W2        13966           0.0000000000
     40269     13423  TIP3      H2            -48.5854705720       35.5090275841       13.3409836648  W2        13966           0.0000000000
     40270     13424  TIP3      OH2           -46.4206405720       33.7838475841       13.5607836648  W2        13967           0.0000000000
     40271     13424  TIP3      H1            -47.3252705720       33.9488675841       13.2949936648  W2        13967           0.0000000000
     40272     13424  TIP3      H2            -45.9917805720       34.6370675841       13.4951236648  W2        13967           0.0000000000
     40273     13425  TIP3      OH2           -43.8164505720       35.3537575841       13.8555636648  W2        13968           0.0000000000
     40274     13425  TIP3      H1            -43.9982505720       36.2696475841       13.6450536648  W2        13968           0.0000000000
     40275     13425  TIP3      H2            -43.6396705720       34.9434675841       13.0090236648  W2        13968           0.0000000000
     40276     13426  TIP3      OH2           -56.5112805720       34.0408575841       11.3206136648  W2        13969           0.0000000000
     40277     13426  TIP3      H1            -56.5296805720       33.6153675841       12.1778436648  W2        13969           0.0000000000
     40278     13426  TIP3      H2            -55.7064905720       33.7223575841       10.9118336648  W2        13969           0.0000000000
     40279     13427  TIP3      OH2           -54.3699705720       32.7507275841        9.9756036648  W2        13970           0.0000000000
     40280     13427  TIP3      H1            -54.5889005720       31.8344675841       10.1452036648  W2        13970           0.0000000000
     40281     13427  TIP3      H2            -53.5457505720       32.8907675841       10.4417436648  W2        13970           0.0000000000
     40282     13428  TIP3      OH2           -51.8327205720       33.2206575841       10.8244036648  W2        13971           0.0000000000
     40283     13428  TIP3      H1            -51.6201505720       32.3325575841       10.5374936648  W2        13971           0.0000000000
     40284     13428  TIP3      H2            -51.7682105720       33.1864275841       11.7788036648  W2        13971           0.0000000000
     40285     13429  TIP3      OH2           -48.3243505720       18.8847175841        9.9687336648  W2        13972           0.0000000000
     40286     13429  TIP3      H1            -48.9986705720       18.2552775841       10.2243136648  W2        13972           0.0000000000
     40287     13429  TIP3      H2            -47.7604305720       18.4006075841        9.3655236648  W2        13972           0.0000000000
     40288     13430  TIP3      OH2           -43.1816305720       16.9921175841       10.0814436648  W2        13973           0.0000000000
     40289     13430  TIP3      H1            -42.5778705720       17.5396575841        9.5795436648  W2        13973           0.0000000000
     40290     13430  TIP3      H2            -44.0514305720       17.3111575841        9.8408536648  W2        13973           0.0000000000
     40291     13431  TIP3      OH2           -41.4545905720       18.1309875841        8.4145336648  W2        13974           0.0000000000
     40292     13431  TIP3      H1            -40.8428405720       17.6165575841        7.8878936648  W2        13974           0.0000000000
     40293     13431  TIP3      H2            -41.0722505720       19.0081975841        8.4379736648  W2        13974           0.0000000000
     40294     13432  TIP3      OH2           -55.9976005720       17.5187475841        7.7907236648  W2        13975           0.0000000000
     40295     13432  TIP3      H1            -56.7746205720       17.2842375841        7.2833136648  W2        13975           0.0000000000
     40296     13432  TIP3      H2            -55.4672405720       16.7219575841        7.7995236648  W2        13975           0.0000000000
     40297     13433  TIP3      OH2           -57.1612605720       17.3165575841        3.5943336648  W2        13976           0.0000000000
     40298     13433  TIP3      H1            -56.7221905720       17.9276075841        3.0026836648  W2        13976           0.0000000000
     40299     13433  TIP3      H2            -57.7950205720       17.8549675841        4.0683336648  W2        13976           0.0000000000
     40300     13434  TIP3      OH2           -51.4183405720       17.4454575841        7.6040336648  W2        13977           0.0000000000
     40301     13434  TIP3      H1            -50.5440005720       17.8338875841        7.5744636648  W2        13977           0.0000000000
     40302     13434  TIP3      H2            -51.5542605720       17.2302375841        8.5267536648  W2        13977           0.0000000000
     40303     13435  TIP3      OH2           -45.8615005720       17.4754375841        9.2532036648  W2        13978           0.0000000000
     40304     13435  TIP3      H1            -45.7853405720       17.5705975841        8.3038036648  W2        13978           0.0000000000
     40305     13435  TIP3      H2            -46.1365805720       16.5677275841        9.3821136648  W2        13978           0.0000000000
     40306     13436  TIP3      OH2           -44.5082405720       17.5012175841        4.9457036648  W2        13979           0.0000000000
     40307     13436  TIP3      H1            -45.2111305720       18.1161375841        4.7358436648  W2        13979           0.0000000000
     40308     13436  TIP3      H2            -44.9531005720       16.6638875841        5.0767936648  W2        13979           0.0000000000
     40309     13437  TIP3      OH2           -57.2603105720       33.2647775841        4.4918436648  W2        13980           0.0000000000
     40310     13437  TIP3      H1            -57.9453205720       33.2266675841        3.8243536648  W2        13980           0.0000000000
     40311     13437  TIP3      H2            -57.2565905720       34.1775375841        4.7800536648  W2        13980           0.0000000000
     40312     13438  TIP3      OH2           -55.3003505720       19.2327075841        2.0367436648  W2        13981           0.0000000000
     40313     13438  TIP3      H1            -54.8090105720       18.6029475841        1.5092936648  W2        13981           0.0000000000
     40314     13438  TIP3      H2            -54.6767205720       19.5286475841        2.6998636648  W2        13981           0.0000000000
     40315     13439  TIP3      OH2           -50.2743405720       19.5258575841        4.4937936648  W2        13982           0.0000000000
     40316     13439  TIP3      H1            -50.0962105720       18.8791775841        5.1766536648  W2        13982           0.0000000000
     40317     13439  TIP3      H2            -50.3277205720       20.3596275841        4.9609036648  W2        13982           0.0000000000
     40318     13440  TIP3      OH2           -48.3959605720       34.4742675841        2.8894636648  W2        13983           0.0000000000
     40319     13440  TIP3      H1            -47.5299405720       34.8410075841        2.7112836648  W2        13983           0.0000000000
     40320     13440  TIP3      H2            -48.6426805720       34.0350675841        2.0755436648  W2        13983           0.0000000000
     40321     13441  TIP3      OH2           -41.6870005720       34.0372975841        5.5685736648  W2        13984           0.0000000000
     40322     13441  TIP3      H1            -41.8812905720       33.2895075841        5.0035336648  W2        13984           0.0000000000
     40323     13441  TIP3      H2            -41.7259905720       34.7953075841        4.9853636648  W2        13984           0.0000000000
     40324     13442  TIP3      OH2           -56.0398005720       18.0329375841       17.3083436648  W2        13985           0.0000000000
     40325     13442  TIP3      H1            -56.4059805720       17.2671975841       17.7508136648  W2        13985           0.0000000000
     40326     13442  TIP3      H2            -55.1269505720       18.0619575841       17.5948536648  W2        13985           0.0000000000
     40327     13443  TIP3      OH2           -55.4421905720       34.1848575841        1.5170536648  W2        13987           0.0000000000
     40328     13443  TIP3      H1            -55.7097305720       34.4711475841        2.3903636648  W2        13987           0.0000000000
     40329     13443  TIP3      H2            -54.6709305720       33.6387775841        1.6693036648  W2        13987           0.0000000000
     40330     13444  TIP3      OH2           -42.4693805720       32.7885375841       17.7187536648  W2        13989           0.0000000000
     40331     13444  TIP3      H1            -43.2511905720       32.6023375841       17.1988136648  W2        13989           0.0000000000
     40332     13444  TIP3      H2            -42.5413905720       33.7179675841       17.9360036648  W2        13989           0.0000000000
     40333     13445  TIP3      OH2           -28.0633405720       26.6749775841        7.7494736648  W2        13990           0.0000000000
     40334     13445  TIP3      H1            -27.9742305720       27.6187975841        7.6171836648  W2        13990           0.0000000000
     40335     13445  TIP3      H2            -28.7015805720       26.3996175841        7.0914136648  W2        13990           0.0000000000
     40336     13446  TIP3      OH2           -29.1302105720       25.9300475841       11.1682936648  W2        13991           0.0000000000
     40337     13446  TIP3      H1            -29.1684605720       25.2836775841       11.8732536648  W2        13991           0.0000000000
     40338     13446  TIP3      H2            -29.4525605720       25.4634875841       10.3971636648  W2        13991           0.0000000000
     40339     13447  TIP3      OH2           -36.7617105720       25.5442575841       12.7612836648  W2        13992           0.0000000000
     40340     13447  TIP3      H1            -36.7205005720       24.9185875841       13.4845236648  W2        13992           0.0000000000
     40341     13447  TIP3      H2            -36.0589405720       26.1681175841       12.9433236648  W2        13992           0.0000000000
     40342     13448  TIP3      OH2           -25.4241905720       28.8690875841        9.4698036648  W2        13993           0.0000000000
     40343     13448  TIP3      H1            -25.8649205720       28.1486875841        9.9203636648  W2        13993           0.0000000000
     40344     13448  TIP3      H2            -25.4372205720       29.5898075841       10.0995736648  W2        13993           0.0000000000
     40345     13449  TIP3      OH2           -35.8384005720       29.9941475841       11.2961936648  W2        13994           0.0000000000
     40346     13449  TIP3      H1            -36.2078805720       29.1921975841       10.9266236648  W2        13994           0.0000000000
     40347     13449  TIP3      H2            -34.8972905720       29.8256375841       11.3425336648  W2        13994           0.0000000000
     40348     13450  TIP3      OH2           -39.2283505720       23.6544075841        6.6890736648  W2        13995           0.0000000000
     40349     13450  TIP3      H1            -39.6760105720       24.5002775841        6.6707236648  W2        13995           0.0000000000
     40350     13450  TIP3      H2            -39.7892305720       23.0748275841        6.1735836648  W2        13995           0.0000000000
     40351     13451  TIP3      OH2           -38.5177405720       25.8163675841        8.8148736648  W2        13996           0.0000000000
     40352     13451  TIP3      H1            -38.3043905720       25.0465275841        9.3421736648  W2        13996           0.0000000000
     40353     13451  TIP3      H2            -37.7799805720       25.9060375841        8.2116336648  W2        13996           0.0000000000
     40354     13452  TIP3      OH2           -28.3126405720       33.9732575841        9.6818436648  W2        13997           0.0000000000
     40355     13452  TIP3      H1            -27.6930005720       33.2967275841        9.4087636648  W2        13997           0.0000000000
     40356     13452  TIP3      H2            -28.5209005720       33.7553375841       10.5903336648  W2        13997           0.0000000000
     40357     13453  TIP3      OH2           -30.7407705720       28.3621875841       11.5743936648  W2        13998           0.0000000000
     40358     13453  TIP3      H1            -30.4369805720       27.6763275841       10.9798036648  W2        13998           0.0000000000
     40359     13453  TIP3      H2            -30.0193705720       28.4810575841       12.1921936648  W2        13998           0.0000000000
     40360     13454  TIP3      OH2           -22.0777905720       19.9637175841       12.4350136648  W2        13999           0.0000000000
     40361     13454  TIP3      H1            -22.0285705720       20.5738375841       13.1709236648  W2        13999           0.0000000000
     40362     13454  TIP3      H2            -21.6522805720       20.4248075841       11.7121236648  W2        13999           0.0000000000
     40363     13455  TIP3      OH2           -27.6000705720       22.7564275841       11.9018736648  W2        14000           0.0000000000
     40364     13455  TIP3      H1            -27.4574805720       21.8101275841       11.9220336648  W2        14000           0.0000000000
     40365     13455  TIP3      H2            -27.7061705720       22.9634075841       10.9733636648  W2        14000           0.0000000000
     40366     13456  TIP3      OH2           -34.4452405720       20.8580675841        9.1743536648  W2        14001           0.0000000000
     40367     13456  TIP3      H1            -34.4021305720       21.7179175841        8.7559836648  W2        14001           0.0000000000
     40368     13456  TIP3      H2            -34.9028305720       20.3055375841        8.5406736648  W2        14001           0.0000000000
     40369     13457  TIP3      OH2           -26.7229705720       20.9886275841        7.5751836648  W2        14002           0.0000000000
     40370     13457  TIP3      H1            -26.0765405720       20.6599475841        8.1999436648  W2        14002           0.0000000000
     40371     13457  TIP3      H2            -26.2130305720       21.5065275841        6.9523236648  W2        14002           0.0000000000
     40372     13458  TIP3      OH2           -37.8250905720       23.2546475841        9.9364936648  W2        14003           0.0000000000
     40373     13458  TIP3      H1            -37.1714305720       22.7048175841       10.3685036648  W2        14003           0.0000000000
     40374     13458  TIP3      H2            -37.8011605720       22.9805475841        9.0196936648  W2        14003           0.0000000000
     40375     13459  TIP3      OH2           -32.6686405720       24.8047775841        9.1516436648  W2        14004           0.0000000000
     40376     13459  TIP3      H1            -32.0525405720       24.2783175841        9.6610436648  W2        14004           0.0000000000
     40377     13459  TIP3      H2            -33.2547605720       24.1646475841        8.7480036648  W2        14004           0.0000000000
     40378     13460  TIP3      OH2           -21.6863305720       21.4416375841       14.6709936648  W2        14005           0.0000000000
     40379     13460  TIP3      H1            -22.3748705720       22.0997075841       14.5756536648  W2        14005           0.0000000000
     40380     13460  TIP3      H2            -21.6708705720       21.2444275841       15.6075336648  W2        14005           0.0000000000
     40381     13461  TIP3      OH2           -35.6350505720       19.7759075841       13.2484336648  W2        14006           0.0000000000
     40382     13461  TIP3      H1            -35.8538805720       20.3059675841       12.4820336648  W2        14006           0.0000000000
     40383     13461  TIP3      H2            -36.3029605720       20.0024575841       13.8955736648  W2        14006           0.0000000000
     40384     13462  TIP3      OH2           -28.2660705720       29.2760175841        6.7923436648  W2        14007           0.0000000000
     40385     13462  TIP3      H1            -28.5615605720       28.9532475841        5.9410336648  W2        14007           0.0000000000
     40386     13462  TIP3      H2            -28.5902905720       30.1756875841        6.8336036648  W2        14007           0.0000000000
     40387     13463  TIP3      OH2           -33.0659105720       27.4514775841       13.5358036648  W2        14008           0.0000000000
     40388     13463  TIP3      H1            -33.8060005720       28.0496275841       13.6393236648  W2        14008           0.0000000000
     40389     13463  TIP3      H2            -32.3519605720       28.0054375841       13.2201636648  W2        14008           0.0000000000
     40390     13464  TIP3      OH2           -24.9591305720       20.2795575841        9.5557736648  W2        14009           0.0000000000
     40391     13464  TIP3      H1            -25.1743305720       19.5138975841       10.0883736648  W2        14009           0.0000000000
     40392     13464  TIP3      H2            -24.3033905720       20.7520175841       10.0686236648  W2        14009           0.0000000000
     40393     13465  TIP3      OH2           -36.0413205720       21.6680875841       11.2006536648  W2        14010           0.0000000000
     40394     13465  TIP3      H1            -35.4276905720       22.3008475841       11.5738936648  W2        14010           0.0000000000
     40395     13465  TIP3      H2            -35.5292505720       21.1955875841       10.5443436648  W2        14010           0.0000000000
     40396     13466  TIP3      OH2           -34.6584805720       29.4157775841       14.3229536648  W2        14011           0.0000000000
     40397     13466  TIP3      H1            -34.6637205720       30.2951275841       13.9448836648  W2        14011           0.0000000000
     40398     13466  TIP3      H2            -35.5120705720       29.3321875841       14.7479436648  W2        14011           0.0000000000
     40399     13467  TIP3      OH2           -38.5373905720       29.0865675841        5.1048836648  W2        14012           0.0000000000
     40400     13467  TIP3      H1            -38.8093005720       29.3156675841        4.2161736648  W2        14012           0.0000000000
     40401     13467  TIP3      H2            -38.4918205720       29.9244475841        5.5654136648  W2        14012           0.0000000000
     40402     13468  TIP3      OH2           -24.9124205720       30.7081575841       11.8177336648  W2        14013           0.0000000000
     40403     13468  TIP3      H1            -25.8540505720       30.7665475841       11.9794236648  W2        14013           0.0000000000
     40404     13468  TIP3      H2            -24.6358105720       31.6142075841       11.6807036648  W2        14013           0.0000000000
     40405     13469  TIP3      OH2           -24.6117205720       18.9946875841       13.2351236648  W2        14014           0.0000000000
     40406     13469  TIP3      H1            -25.3478005720       19.6053975841       13.1972536648  W2        14014           0.0000000000
     40407     13469  TIP3      H2            -23.9283205720       19.4095875841       12.7087636648  W2        14014           0.0000000000
     40408     13470  TIP3      OH2           -31.6085805720       17.0814175841       10.7009236648  W2        14015           0.0000000000
     40409     13470  TIP3      H1            -31.7261605720       16.1330175841       10.6467536648  W2        14015           0.0000000000
     40410     13470  TIP3      H2            -32.4635705720       17.4140275841       10.9740336648  W2        14015           0.0000000000
     40411     13471  TIP3      OH2           -26.6603005720       32.4895075841        8.4428936648  W2        14016           0.0000000000
     40412     13471  TIP3      H1            -26.2350705720       31.7822975841        7.9578536648  W2        14016           0.0000000000
     40413     13471  TIP3      H2            -26.3433005720       33.2907775841        8.0261136648  W2        14016           0.0000000000
     40414     13472  TIP3      OH2           -25.5006505720       30.3903575841        6.9515536648  W2        14017           0.0000000000
     40415     13472  TIP3      H1            -25.7581705720       29.7003675841        6.3401436648  W2        14017           0.0000000000
     40416     13472  TIP3      H2            -25.4295705720       29.9474775841        7.7971436648  W2        14017           0.0000000000
     40417     13473  TIP3      OH2           -23.8146305720       28.9570275841       15.4289036648  W2        14018           0.0000000000
     40418     13473  TIP3      H1            -23.6750005720       28.3652775841       14.6896036648  W2        14018           0.0000000000
     40419     13473  TIP3      H2            -23.6473505720       29.8296175841       15.0727836648  W2        14018           0.0000000000
     40420     13474  TIP3      OH2           -29.3420905720       25.9189775841        5.2015036648  W2        14019           0.0000000000
     40421     13474  TIP3      H1            -30.0535405720       26.4539475841        4.8495536648  W2        14019           0.0000000000
     40422     13474  TIP3      H2            -28.6511305720       25.9741875841        4.5413936648  W2        14019           0.0000000000
     40423     13475  TIP3      OH2           -29.2881705720       24.3764075841        2.2400036648  W2        14020           0.0000000000
     40424     13475  TIP3      H1            -28.5871805720       24.3990975841        2.8914036648  W2        14020           0.0000000000
     40425     13475  TIP3      H2            -28.9858805720       23.7483775841        1.5839336648  W2        14020           0.0000000000
     40426     13476  TIP3      OH2           -21.9727005720       25.2968275841       13.4949436648  W2        14021           0.0000000000
     40427     13476  TIP3      H1            -22.6252905720       25.9913875841       13.5840336648  W2        14021           0.0000000000
     40428     13476  TIP3      H2            -21.5076705720       25.5069175841       12.6851036648  W2        14021           0.0000000000
     40429     13477  TIP3      OH2           -25.9363205720       26.1283075841        6.1530936648  W2        14022           0.0000000000
     40430     13477  TIP3      H1            -26.6682205720       26.3566775841        6.7261536648  W2        14022           0.0000000000
     40431     13477  TIP3      H2            -25.4891005720       25.4145775841        6.6078436648  W2        14022           0.0000000000
     40432     13478  TIP3      OH2           -26.0389705720       24.3025675841       15.2207936648  W2        14023           0.0000000000
     40433     13478  TIP3      H1            -25.9590605720       25.0660075841       15.7926436648  W2        14023           0.0000000000
     40434     13478  TIP3      H2            -26.6402005720       24.5818075841       14.5303036648  W2        14023           0.0000000000
     40435     13479  TIP3      OH2           -34.2909505720       26.7589275841        8.0355936648  W2        14024           0.0000000000
     40436     13479  TIP3      H1            -34.6214305720       26.3882675841        7.2172936648  W2        14024           0.0000000000
     40437     13479  TIP3      H2            -33.7025405720       26.0883275841        8.3824236648  W2        14024           0.0000000000
     40438     13480  TIP3      OH2           -32.9242005720       30.1869875841       10.7168136648  W2        14025           0.0000000000
     40439     13480  TIP3      H1            -33.0190705720       29.6082975841        9.9602736648  W2        14025           0.0000000000
     40440     13480  TIP3      H2            -32.1948405720       29.8155575841       11.2130936648  W2        14025           0.0000000000
     40441     13481  TIP3      OH2           -33.9244005720       25.5274875841       11.6690936648  W2        14026           0.0000000000
     40442     13481  TIP3      H1            -33.3591505720       25.6489075841       10.9062136648  W2        14026           0.0000000000
     40443     13481  TIP3      H2            -33.6055105720       26.1649875841       12.3079436648  W2        14026           0.0000000000
     40444     13482  TIP3      OH2           -27.6151805720       31.0306775841       12.4031436648  W2        14027           0.0000000000
     40445     13482  TIP3      H1            -27.8555205720       31.6929875841       13.0510636648  W2        14027           0.0000000000
     40446     13482  TIP3      H2            -27.8133605720       30.1961975841       12.8281036648  W2        14027           0.0000000000
     40447     13483  TIP3      OH2           -33.0443305720       29.9267575841       16.3862836648  W2        14028           0.0000000000
     40448     13483  TIP3      H1            -33.3555805720       30.7090775841       16.8416036648  W2        14028           0.0000000000
     40449     13483  TIP3      H2            -33.6943105720       29.7736675841       15.7004836648  W2        14028           0.0000000000
     40450     13484  TIP3      OH2           -27.0653705720       25.2905975841        3.8382136648  W2        14029           0.0000000000
     40451     13484  TIP3      H1            -26.4858205720       25.4406275841        4.5851036648  W2        14029           0.0000000000
     40452     13484  TIP3      H2            -26.6513705720       25.7613375841        3.1148536648  W2        14029           0.0000000000
     40453     13485  TIP3      OH2           -36.1243405720       26.1248675841       15.6148536648  W2        14030           0.0000000000
     40454     13485  TIP3      H1            -36.0540205720       26.7755475841       16.3133536648  W2        14030           0.0000000000
     40455     13485  TIP3      H2            -37.0151205720       26.2276175841       15.2799436648  W2        14030           0.0000000000
     40456     13486  TIP3      OH2           -29.3388805720       32.0274475841        7.2735236648  W2        14031           0.0000000000
     40457     13486  TIP3      H1            -28.8651205720       32.3230775841        8.0509436648  W2        14031           0.0000000000
     40458     13486  TIP3      H2            -29.9019505720       32.7656075841        7.0404836648  W2        14031           0.0000000000
     40459     13487  TIP3      OH2           -34.8047405720       31.9982575841       17.1496636648  W2        14032           0.0000000000
     40460     13487  TIP3      H1            -34.7972105720       31.8622275841       16.2022136648  W2        14032           0.0000000000
     40461     13487  TIP3      H2            -35.7207005720       31.8810675841       17.4016636648  W2        14032           0.0000000000
     40462     13488  TIP3      OH2           -23.3665305720       17.0406375841        3.6511836648  W2        14033           0.0000000000
     40463     13488  TIP3      H1            -24.2664605720       17.1795375841        3.9462436648  W2        14033           0.0000000000
     40464     13488  TIP3      H2            -23.1146905720       17.8720975841        3.2493536648  W2        14033           0.0000000000
     40465     13489  TIP3      OH2           -35.3006805720       25.8283575841        5.6248736648  W2        14034           0.0000000000
     40466     13489  TIP3      H1            -35.5925505720       26.5965275841        5.1340036648  W2        14034           0.0000000000
     40467     13489  TIP3      H2            -35.9751605720       25.1689775841        5.4620136648  W2        14034           0.0000000000
     40468     13490  TIP3      OH2           -22.1773905720       31.4068775841        2.0275736648  W2        14035           0.0000000000
     40469     13490  TIP3      H1            -22.1040405720       32.3458975841        2.1981036648  W2        14035           0.0000000000
     40470     13490  TIP3      H2            -21.2718805720       31.1017375841        1.9713036648  W2        14035           0.0000000000
     40471     13491  TIP3      OH2           -39.2076705720       28.1912775841       14.4398536648  W2        14036           0.0000000000
     40472     13491  TIP3      H1            -39.7088305720       28.1632175841       13.6248236648  W2        14036           0.0000000000
     40473     13491  TIP3      H2            -39.2023005720       27.2855975841       14.7495836648  W2        14036           0.0000000000
     40474     13492  TIP3      OH2           -39.4574005720       30.9716575841       11.3238736648  W2        14037           0.0000000000
     40475     13492  TIP3      H1            -38.5113405720       30.8273575841       11.3048236648  W2        14037           0.0000000000
     40476     13492  TIP3      H2            -39.5697705720       31.7559375841       11.8609936648  W2        14037           0.0000000000
     40477     13493  TIP3      OH2           -21.2595505720       31.6376275841       17.0062436648  W2        14038           0.0000000000
     40478     13493  TIP3      H1            -21.3088705720       30.6824375841       16.9690036648  W2        14038           0.0000000000
     40479     13493  TIP3      H2            -22.0863205720       31.9051575841       17.4076236648  W2        14038           0.0000000000
     40480     13494  TIP3      OH2           -30.2811505720       31.2115475841       15.8823836648  W2        14039           0.0000000000
     40481     13494  TIP3      H1            -30.1936905720       32.0380075841       16.3572936648  W2        14039           0.0000000000
     40482     13494  TIP3      H2            -31.1446405720       30.8819275841       16.1313136648  W2        14039           0.0000000000
     40483     13495  TIP3      OH2           -29.8665705720       34.9839175841        5.6884436648  W2        14040           0.0000000000
     40484     13495  TIP3      H1            -29.9419705720       34.8626375841        4.7419636648  W2        14040           0.0000000000
     40485     13495  TIP3      H2            -29.8337005720       35.9331875841        5.8069036648  W2        14040           0.0000000000
     40486     13496  TIP3      OH2           -36.2131905720       33.7726175841        7.4693436648  W2        14041           0.0000000000
     40487     13496  TIP3      H1            -36.0611505720       33.4246575841        8.3479936648  W2        14041           0.0000000000
     40488     13496  TIP3      H2            -37.0641505720       33.4163475841        7.2140636648  W2        14041           0.0000000000
     40489     13497  TIP3      OH2           -26.7649705720       34.1379375841        2.6906836648  W2        14042           0.0000000000
     40490     13497  TIP3      H1            -26.3901305720       33.3935475841        2.2199436648  W2        14042           0.0000000000
     40491     13497  TIP3      H2            -26.7606005720       33.8679975841        3.6090136648  W2        14042           0.0000000000
     40492     13498  TIP3      OH2           -27.0961605720       34.0636475841        5.4399036648  W2        14043           0.0000000000
     40493     13498  TIP3      H1            -28.0311805720       34.1638375841        5.6186036648  W2        14043           0.0000000000
     40494     13498  TIP3      H2            -26.8159705720       33.3542475841        6.0182236648  W2        14043           0.0000000000
     40495     13499  TIP3      OH2           -24.1075705720       23.1308775841       17.4864636648  W2        14044           0.0000000000
     40496     13499  TIP3      H1            -24.5148905720       23.6114375841       16.7657936648  W2        14044           0.0000000000
     40497     13499  TIP3      H2            -24.0670005720       22.2254775841       17.1785436648  W2        14044           0.0000000000
     40498     13500  TIP3      OH2           -36.9586205720       29.5148175841       15.4831336648  W2        14045           0.0000000000
     40499     13500  TIP3      H1            -36.7424905720       29.1533775841       16.3427136648  W2        14045           0.0000000000
     40500     13500  TIP3      H2            -37.8141505720       29.1401975841       15.2734836648  W2        14045           0.0000000000
     40501     13501  TIP3      OH2           -34.3398205720       17.9848675841       11.4785536648  W2        14046           0.0000000000
     40502     13501  TIP3      H1            -35.2014505720       17.8976875841       11.0708436648  W2        14046           0.0000000000
     40503     13501  TIP3      H2            -34.3622505720       18.8408775841       11.9063136648  W2        14046           0.0000000000
     40504     13502  TIP3      OH2           -29.6770405720       17.7069075841       14.8532536648  W2        14047           0.0000000000
     40505     13502  TIP3      H1            -29.2567305720       17.2916175841       15.6063136648  W2        14047           0.0000000000
     40506     13502  TIP3      H2            -30.6100805720       17.5282375841       14.9704536648  W2        14047           0.0000000000
     40507     13503  TIP3      OH2           -26.3505505720       21.4624275841       15.7067036648  W2        14048           0.0000000000
     40508     13503  TIP3      H1            -26.8646005720       21.3366475841       16.5043036648  W2        14048           0.0000000000
     40509     13503  TIP3      H2            -26.5060805720       22.3747375841       15.4623236648  W2        14048           0.0000000000
     40510     13504  TIP3      OH2           -25.5880605720       26.3234275841        1.4680036648  W2        14049           0.0000000000
     40511     13504  TIP3      H1            -25.5459805720       26.1008175841        0.5380036648  W2        14049           0.0000000000
     40512     13504  TIP3      H2            -24.7388505720       26.7221375841        1.6579936648  W2        14049           0.0000000000
     40513     13505  TIP3      OH2           -30.0153105720       20.1992475841        2.1383336648  W2        14050           0.0000000000
     40514     13505  TIP3      H1            -30.2688305720       20.2184075841        3.0611436648  W2        14050           0.0000000000
     40515     13505  TIP3      H2            -30.2721005720       19.3277875841        1.8369536648  W2        14050           0.0000000000
     40516     13506  TIP3      OH2           -34.2488105720       22.9503175841       12.5735736648  W2        14051           0.0000000000
     40517     13506  TIP3      H1            -34.8906005720       22.9100475841       13.2825836648  W2        14051           0.0000000000
     40518     13506  TIP3      H2            -34.2116105720       23.8767875841       12.3358736648  W2        14051           0.0000000000
     40519     13507  TIP3      OH2           -34.2519005720       23.1713275841        7.4855736648  W2        14052           0.0000000000
     40520     13507  TIP3      H1            -35.1446105720       22.8309375841        7.4269536648  W2        14052           0.0000000000
     40521     13507  TIP3      H2            -33.8012405720       22.7944175841        6.7298936648  W2        14052           0.0000000000
     40522     13508  TIP3      OH2           -28.7163505720       23.5873575841        6.3026536648  W2        14053           0.0000000000
     40523     13508  TIP3      H1            -29.1253205720       24.4022175841        6.0111336648  W2        14053           0.0000000000
     40524     13508  TIP3      H2            -27.9957305720       23.4473675841        5.6883636648  W2        14053           0.0000000000
     40525     13509  TIP3      OH2           -29.6141905720       23.7629975841       17.7907236648  W2        14054           0.0000000000
     40526     13509  TIP3      H1            -30.1768105720       23.0581575841       18.1115036648  W2        14054           0.0000000000
     40527     13509  TIP3      H2            -28.7878505720       23.6421875841       18.2584836648  W2        14054           0.0000000000
     40528     13510  TIP3      OH2           -27.7115805720       23.0333975841        9.1166236648  W2        14055           0.0000000000
     40529     13510  TIP3      H1            -27.9071305720       23.6390775841        8.4016836648  W2        14055           0.0000000000
     40530     13510  TIP3      H2            -27.5303205720       22.1999175841        8.6822536648  W2        14055           0.0000000000
     40531     13511  TIP3      OH2           -36.4987605720       23.2706675841       14.4407736648  W2        14056           0.0000000000
     40532     13511  TIP3      H1            -36.5368205720       23.6708275841       15.3094836648  W2        14056           0.0000000000
     40533     13511  TIP3      H2            -36.9896505720       22.4539075841       14.5310636648  W2        14056           0.0000000000
     40534     13512  TIP3      OH2           -33.1330205720       20.6448975841        1.2393736648  W2        14057           0.0000000000
     40535     13512  TIP3      H1            -33.5639505720       20.1999075841        1.9691136648  W2        14057           0.0000000000
     40536     13512  TIP3      H2            -33.8511505720       21.0165275841        0.7271236648  W2        14057           0.0000000000
     40537     13513  TIP3      OH2           -39.8906805720       20.3868475841        8.2912436648  W2        14058           0.0000000000
     40538     13513  TIP3      H1            -39.2599105720       20.3580575841        9.0106336648  W2        14058           0.0000000000
     40539     13513  TIP3      H2            -39.4412505720       19.9617175841        7.5608336648  W2        14058           0.0000000000
     40540     13514  TIP3      OH2           -38.6164705720       21.1330475841        3.7152836648  W2        14059           0.0000000000
     40541     13514  TIP3      H1            -38.1423005720       21.7240375841        3.1303736648  W2        14059           0.0000000000
     40542     13514  TIP3      H2            -39.3338305720       21.6633375841        4.0622936648  W2        14059           0.0000000000
     40543     13515  TIP3      OH2           -28.4476605720       24.6715275841       13.7878636648  W2        14060           0.0000000000
     40544     13515  TIP3      H1            -28.1241805720       24.0404975841       13.1449136648  W2        14060           0.0000000000
     40545     13515  TIP3      H2            -28.8877305720       24.1367475841       14.4486036648  W2        14060           0.0000000000
     40546     13516  TIP3      OH2           -31.6703705720       20.5990775841        8.5719836648  W2        14061           0.0000000000
     40547     13516  TIP3      H1            -32.5812605720       20.6557575841        8.8605836648  W2        14061           0.0000000000
     40548     13516  TIP3      H2            -31.1650805720       20.5386275841        9.3827036648  W2        14061           0.0000000000
     40549     13517  TIP3      OH2           -36.8420305720       22.2277075841        7.3987436648  W2        14062           0.0000000000
     40550     13517  TIP3      H1            -37.7312305720       22.3272575841        7.0587036648  W2        14062           0.0000000000
     40551     13517  TIP3      H2            -36.5455405720       21.3860075841        7.0525336648  W2        14062           0.0000000000
     40552     13518  TIP3      OH2           -33.1888505720       22.2279675841        5.0552036648  W2        14063           0.0000000000
     40553     13518  TIP3      H1            -32.2573005720       22.3569675841        5.2335136648  W2        14063           0.0000000000
     40554     13518  TIP3      H2            -33.4038205720       22.8973975841        4.4056736648  W2        14063           0.0000000000
     40555     13519  TIP3      OH2           -27.2651805720       19.8337075841       11.8361636648  W2        14064           0.0000000000
     40556     13519  TIP3      H1            -27.9420205720       19.9650175841       12.5001336648  W2        14064           0.0000000000
     40557     13519  TIP3      H2            -27.7506905720       19.6786575841       11.0259336648  W2        14064           0.0000000000
     40558     13520  TIP3      OH2           -34.5148305720       23.4221875841        2.6218136648  W2        14065           0.0000000000
     40559     13520  TIP3      H1            -35.0573205720       23.0425675841        1.9305736648  W2        14065           0.0000000000
     40560     13520  TIP3      H2            -33.6813405720       23.6166575841        2.1932236648  W2        14065           0.0000000000
     40561     13521  TIP3      OH2           -36.3796905720       27.9793775841       17.7209736648  W2        14067           0.0000000000
     40562     13521  TIP3      H1            -35.6474505720       28.2339675841       18.2824236648  W2        14067           0.0000000000
     40563     13521  TIP3      H2            -37.1598205720       28.1839175841       18.2365136648  W2        14067           0.0000000000
     40564     13522  TIP3      OH2           -30.3504005720       23.3863775841       10.4589436648  W2        14068           0.0000000000
     40565     13522  TIP3      H1            -29.7860605720       22.8400375841        9.9119036648  W2        14068           0.0000000000
     40566     13522  TIP3      H2            -30.4980605720       22.8645675841       11.2477036648  W2        14068           0.0000000000
     40567     13523  TIP3      OH2           -35.3484305720       19.5229875841        6.8774236648  W2        14069           0.0000000000
     40568     13523  TIP3      H1            -35.6654805720       18.6205175841        6.8419636648  W2        14069           0.0000000000
     40569     13523  TIP3      H2            -34.5670205720       19.5247275841        6.3245836648  W2        14069           0.0000000000
     40570     13524  TIP3      OH2           -31.7238105720       21.7749875841       12.8729836648  W2        14070           0.0000000000
     40571     13524  TIP3      H1            -32.5592805720       22.2289375841       12.9832236648  W2        14070           0.0000000000
     40572     13524  TIP3      H2            -31.1997505720       22.0508375841       13.6249736648  W2        14070           0.0000000000
     40573     13525  TIP3      OH2           -31.1795505720       27.9877575841        4.5576236648  W2        14071           0.0000000000
     40574     13525  TIP3      H1            -31.9244505720       27.4802875841        4.2354136648  W2        14071           0.0000000000
     40575     13525  TIP3      H2            -31.3138305720       28.0365575841        5.5041036648  W2        14071           0.0000000000
     40576     13526  TIP3      OH2           -24.0296605720       27.1205775841       13.3443836648  W2        14072           0.0000000000
     40577     13526  TIP3      H1            -23.3877805720       27.5772075841       12.8006036648  W2        14072           0.0000000000
     40578     13526  TIP3      H2            -24.8599705720       27.2338175841       12.8817936648  W2        14072           0.0000000000
     40579     13527  TIP3      OH2           -27.2818705720       20.8017475841        2.7568836648  W2        14073           0.0000000000
     40580     13527  TIP3      H1            -28.2204505720       20.9133075841        2.6057636648  W2        14073           0.0000000000
     40581     13527  TIP3      H2            -26.9846605720       21.6584375841        3.0634536648  W2        14073           0.0000000000
     40582     13528  TIP3      OH2           -29.6603405720       28.1720875841       15.7945336648  W2        14074           0.0000000000
     40583     13528  TIP3      H1            -30.0057305720       27.7903275841       16.6014936648  W2        14074           0.0000000000
     40584     13528  TIP3      H2            -29.8603305720       29.1054475841       15.8658236648  W2        14074           0.0000000000
     40585     13529  TIP3      OH2           -26.5635205720       22.6690175841        4.4176236648  W2        14075           0.0000000000
     40586     13529  TIP3      H1            -25.6716205720       22.5315175841        4.7367436648  W2        14075           0.0000000000
     40587     13529  TIP3      H2            -26.5071605720       23.4596275841        3.8809736648  W2        14075           0.0000000000
     40588     13530  TIP3      OH2           -36.0547205720       27.2827575841       10.3274136648  W2        14076           0.0000000000
     40589     13530  TIP3      H1            -35.3100005720       27.2803275841        9.7260636648  W2        14076           0.0000000000
     40590     13530  TIP3      H2            -35.9770605720       26.4591375841       10.8089236648  W2        14076           0.0000000000
     40591     13531  TIP3      OH2           -29.0541405720       29.4461875841        3.5830836648  W2        14077           0.0000000000
     40592     13531  TIP3      H1            -29.3493005720       30.2729775841        3.9645636648  W2        14077           0.0000000000
     40593     13531  TIP3      H2            -29.7571405720       28.8268775841        3.7792236648  W2        14077           0.0000000000
     40594     13532  TIP3      OH2           -39.0467505720       25.7434475841       15.6422636648  W2        14078           0.0000000000
     40595     13532  TIP3      H1            -38.8238905720       25.3254075841       16.4740136648  W2        14078           0.0000000000
     40596     13532  TIP3      H2            -39.6487405720       25.1309475841       15.2195436648  W2        14078           0.0000000000
     40597     13533  TIP3      OH2           -27.4099805720       30.6336375841       15.7450336648  W2        14080           0.0000000000
     40598     13533  TIP3      H1            -28.3105505720       30.8168975841       15.4774236648  W2        14080           0.0000000000
     40599     13533  TIP3      H2            -27.3758705720       30.8925675841       16.6659136648  W2        14080           0.0000000000
     40600     13534  TIP3      OH2           -21.6786505720       22.8784275841        4.1122936648  W2        14081           0.0000000000
     40601     13534  TIP3      H1            -22.2330205720       22.4822275841        3.4400436648  W2        14081           0.0000000000
     40602     13534  TIP3      H2            -21.5782905720       23.7889475841        3.8346236648  W2        14081           0.0000000000
     40603     13535  TIP3      OH2           -21.7154505720       28.6785975841       16.9494436648  W2        14082           0.0000000000
     40604     13535  TIP3      H1            -22.5666005720       28.9169775841       16.5820836648  W2        14082           0.0000000000
     40605     13535  TIP3      H2            -21.1251105720       28.6619175841       16.1961536648  W2        14082           0.0000000000
     40606     13536  TIP3      OH2           -23.3834805720       31.6644675841        4.5775036648  W2        14083           0.0000000000
     40607     13536  TIP3      H1            -23.7563705720       30.8388475841        4.8865636648  W2        14083           0.0000000000
     40608     13536  TIP3      H2            -23.1061305720       31.4814075841        3.6798436648  W2        14083           0.0000000000
     40609     13537  TIP3      OH2           -26.2230905720       26.4724175841       11.5986936648  W2        14084           0.0000000000
     40610     13537  TIP3      H1            -27.1514005720       26.2406075841       11.5716236648  W2        14084           0.0000000000
     40611     13537  TIP3      H2            -25.7719805720       25.6953975841       11.2685736648  W2        14084           0.0000000000
     40612     13538  TIP3      OH2           -33.6797805720       30.8005775841        7.7315636648  W2        14085           0.0000000000
     40613     13538  TIP3      H1            -33.1525605720       31.5740175841        7.5314436648  W2        14085           0.0000000000
     40614     13538  TIP3      H2            -34.5599305720       31.0254975841        7.4299636648  W2        14085           0.0000000000
     40615     13539  TIP3      OH2           -37.9250105720       25.6629875841        2.3188036648  W2        14086           0.0000000000
     40616     13539  TIP3      H1            -37.3090205720       26.2897075841        2.6982836648  W2        14086           0.0000000000
     40617     13539  TIP3      H2            -38.7867505720       25.9789675841        2.5904536648  W2        14086           0.0000000000
     40618     13540  TIP3      OH2           -32.2525505720       28.4635675841        7.3079936648  W2        14087           0.0000000000
     40619     13540  TIP3      H1            -32.4935505720       29.3890075841        7.3495236648  W2        14087           0.0000000000
     40620     13540  TIP3      H2            -32.9931905720       28.0046975841        7.7043836648  W2        14087           0.0000000000
     40621     13541  TIP3      OH2           -31.7378905720       32.6129275841       13.6231036648  W2        14088           0.0000000000
     40622     13541  TIP3      H1            -31.3754205720       33.4674875841       13.3895436648  W2        14088           0.0000000000
     40623     13541  TIP3      H2            -31.2063705720       32.3210875841       14.3637336648  W2        14088           0.0000000000
     40624     13542  TIP3      OH2           -33.5694705720       33.4853275841        6.8532136648  W2        14089           0.0000000000
     40625     13542  TIP3      H1            -34.5194205720       33.5910675841        6.9045436648  W2        14089           0.0000000000
     40626     13542  TIP3      H2            -33.2176605720       34.3060675841        7.1979636648  W2        14089           0.0000000000
     40627     13543  TIP3      OH2           -28.1938105720       28.7119975841       13.3236636648  W2        14090           0.0000000000
     40628     13543  TIP3      H1            -28.6196805720       28.4841675841       14.1500636648  W2        14090           0.0000000000
     40629     13543  TIP3      H2            -27.6132305720       27.9731775841       13.1411936648  W2        14090           0.0000000000
     40630     13544  TIP3      OH2           -25.9909205720       29.6410475841        2.3975636648  W2        14091           0.0000000000
     40631     13544  TIP3      H1            -25.6376105720       29.2610275841        3.2019136648  W2        14091           0.0000000000
     40632     13544  TIP3      H2            -26.9395705720       29.5475275841        2.4844936648  W2        14091           0.0000000000
     40633     13545  TIP3      OH2           -25.5353905720       33.2639475841       15.7931436648  W2        14092           0.0000000000
     40634     13545  TIP3      H1            -26.1370705720       32.7082375841       15.2977736648  W2        14092           0.0000000000
     40635     13545  TIP3      H2            -25.2540205720       33.9309275841       15.1668836648  W2        14092           0.0000000000
     40636     13546  TIP3      OH2           -21.4874805720       34.1202975841        2.5985836648  W2        14093           0.0000000000
     40637     13546  TIP3      H1            -20.7436905720       34.7063475841        2.4587436648  W2        14093           0.0000000000
     40638     13546  TIP3      H2            -22.1816705720       34.6888775841        2.9318236648  W2        14093           0.0000000000
     40639     13547  TIP3      OH2           -37.4128005720       20.4967175841       15.2004036648  W2        14094           0.0000000000
     40640     13547  TIP3      H1            -38.3055705720       20.8352575841       15.1328036648  W2        14094           0.0000000000
     40641     13547  TIP3      H2            -37.5115205720       19.6413275841       15.6184836648  W2        14094           0.0000000000
     40642     13548  TIP3      OH2           -25.1249905720       28.3132475841        4.6243536648  W2        14095           0.0000000000
     40643     13548  TIP3      H1            -25.4022305720       27.5851775841        5.1804636648  W2        14095           0.0000000000
     40644     13548  TIP3      H2            -24.1976905720       28.4324475841        4.8296136648  W2        14095           0.0000000000
     40645     13549  TIP3      OH2           -37.7616005720       32.3011575841       13.6353436648  W2        14096           0.0000000000
     40646     13549  TIP3      H1            -37.5445705720       31.3693975841       13.6043136648  W2        14096           0.0000000000
     40647     13549  TIP3      H2            -37.5152505720       32.5756575841       14.5186236648  W2        14096           0.0000000000
     40648     13550  TIP3      OH2           -31.9001405720       30.7526575841        0.8445636648  W2        14097           0.0000000000
     40649     13550  TIP3      H1            -31.6611605720       30.0044675841        0.2974536648  W2        14097           0.0000000000
     40650     13550  TIP3      H2            -32.1690105720       30.3648275841        1.6773436648  W2        14097           0.0000000000
     40651     13551  TIP3      OH2           -32.9630805720       30.3230375841        3.3008236648  W2        14098           0.0000000000
     40652     13551  TIP3      H1            -32.8162805720       29.8030175841        4.0909136648  W2        14098           0.0000000000
     40653     13551  TIP3      H2            -32.9659105720       31.2297975841        3.6074136648  W2        14098           0.0000000000
     40654     13552  TIP3      OH2           -36.5099705720       27.5753675841        3.8113636648  W2        14099           0.0000000000
     40655     13552  TIP3      H1            -37.1960405720       27.9276175841        4.3783336648  W2        14099           0.0000000000
     40656     13552  TIP3      H2            -35.9871805720       28.3383275841        3.5647936648  W2        14099           0.0000000000
     40657     13553  TIP3      OH2           -28.6784605720       20.2377475841       14.0902636648  W2        14100           0.0000000000
     40658     13553  TIP3      H1            -27.9796705720       20.3116175841       14.7402336648  W2        14100           0.0000000000
     40659     13553  TIP3      H2            -29.0593205720       19.3732475841       14.2445536648  W2        14100           0.0000000000
     40660     13554  TIP3      OH2           -27.8939705720       19.8899175841        5.1874936648  W2        14101           0.0000000000
     40661     13554  TIP3      H1            -27.6741405720       20.3614575841        4.3840336648  W2        14101           0.0000000000
     40662     13554  TIP3      H2            -27.3355705720       20.2841775841        5.8575536648  W2        14101           0.0000000000
     40663     13555  TIP3      OH2           -30.2253605720       32.0203975841        4.0502436648  W2        14102           0.0000000000
     40664     13555  TIP3      H1            -31.0417505720       32.5173675841        4.1026736648  W2        14102           0.0000000000
     40665     13555  TIP3      H2            -29.6957305720       32.4957475841        3.4101236648  W2        14102           0.0000000000
     40666     13556  TIP3      OH2           -30.6939805720       21.6177975841        6.0223336648  W2        14103           0.0000000000
     40667     13556  TIP3      H1            -29.8817205720       22.1221175841        6.0685036648  W2        14103           0.0000000000
     40668     13556  TIP3      H2            -30.9386805720       21.4727675841        6.9362936648  W2        14103           0.0000000000
     40669     13557  TIP3      OH2           -30.1583405720       22.6040675841       15.2069936648  W2        14104           0.0000000000
     40670     13557  TIP3      H1            -30.0393105720       23.1776075841       15.9640336648  W2        14104           0.0000000000
     40671     13557  TIP3      H2            -29.5028805720       21.9160075841       15.3217736648  W2        14104           0.0000000000
     40672     13558  TIP3      OH2           -29.8103105720       18.6990975841        6.9604436648  W2        14105           0.0000000000
     40673     13558  TIP3      H1            -30.1569605720       19.3161575841        7.6048736648  W2        14105           0.0000000000
     40674     13558  TIP3      H2            -29.1516205720       19.1996675841        6.4789936648  W2        14105           0.0000000000
     40675     13559  TIP3      OH2           -32.8870505720       33.0641175841        4.0319336648  W2        14106           0.0000000000
     40676     13559  TIP3      H1            -32.7261805720       33.8638675841        3.5311936648  W2        14106           0.0000000000
     40677     13559  TIP3      H2            -33.0842705720       33.3707175841        4.9169936648  W2        14106           0.0000000000
     40678     13560  TIP3      OH2           -34.1526105720       19.7620375841        3.6476936648  W2        14107           0.0000000000
     40679     13560  TIP3      H1            -34.2361305720       20.6503475841        3.9943336648  W2        14107           0.0000000000
     40680     13560  TIP3      H2            -33.2625805720       19.4967075841        3.8793736648  W2        14107           0.0000000000
     40681     13561  TIP3      OH2           -23.9537605720       20.5110975841       16.0419636648  W2        14108           0.0000000000
     40682     13561  TIP3      H1            -24.8701805720       20.7732675841       15.9543336648  W2        14108           0.0000000000
     40683     13561  TIP3      H2            -23.6182605720       20.5079975841       15.1454936648  W2        14108           0.0000000000
     40684     13562  TIP3      OH2           -25.3516605720       24.2611975841       10.1376936648  W2        14109           0.0000000000
     40685     13562  TIP3      H1            -26.1492205720       23.8462175841        9.8091936648  W2        14109           0.0000000000
     40686     13562  TIP3      H2            -24.9065505720       23.5705675841       10.6287436648  W2        14109           0.0000000000
     40687     13563  TIP3      OH2           -35.8940805720       30.1892575841        2.7081436648  W2        14110           0.0000000000
     40688     13563  TIP3      H1            -35.3019305720       30.8887375841        2.9843836648  W2        14110           0.0000000000
     40689     13563  TIP3      H2            -35.4347805720       29.7562075841        1.9886036648  W2        14110           0.0000000000
     40690     13564  TIP3      OH2           -37.5781605720       22.8535575841        1.8240836648  W2        14111           0.0000000000
     40691     13564  TIP3      H1            -37.6229005720       23.7928675841        2.0027836648  W2        14111           0.0000000000
     40692     13564  TIP3      H2            -38.4658405720       22.6180475841        1.5542936648  W2        14111           0.0000000000
     40693     13565  TIP3      OH2           -24.2652005720       33.5174475841       11.7600436648  W2        14112           0.0000000000
     40694     13565  TIP3      H1            -24.4207705720       34.1958875841       11.1029736648  W2        14112           0.0000000000
     40695     13565  TIP3      H2            -23.3325605720       33.5893775841       11.9631036648  W2        14112           0.0000000000
     40696     13566  TIP3      OH2           -36.7699605720       17.6352175841       10.4971836648  W2        14113           0.0000000000
     40697     13566  TIP3      H1            -36.9989805720       17.6944675841        9.5696836648  W2        14113           0.0000000000
     40698     13566  TIP3      H2            -37.2126205720       16.8437675841       10.8035936648  W2        14113           0.0000000000
     40699     13567  TIP3      OH2           -37.8396305720       31.5759275841        6.6577636648  W2        14114           0.0000000000
     40700     13567  TIP3      H1            -38.6717705720       32.0481975841        6.6849036648  W2        14114           0.0000000000
     40701     13567  TIP3      H2            -37.2938005720       32.0856875841        6.0590736648  W2        14114           0.0000000000
     40702     13568  TIP3      OH2           -29.8619605720       32.6157975841        0.9831636648  W2        14117           0.0000000000
     40703     13568  TIP3      H1            -30.5058605720       31.9846575841        1.3045336648  W2        14117           0.0000000000
     40704     13568  TIP3      H2            -29.1001305720       32.0845975841        0.7515136648  W2        14117           0.0000000000
     40705     13569  TIP3      OH2           -25.2576705720       32.4327875841        1.2169636648  W2        14119           0.0000000000
     40706     13569  TIP3      H1            -24.9746305720       31.6383075841        1.6696536648  W2        14119           0.0000000000
     40707     13569  TIP3      H2            -24.5178805720       32.6658875841        0.6560736648  W2        14119           0.0000000000
     40708     13570  TIP3      OH2           -34.3029405720       28.3422775841        1.0744536648  W2        14121           0.0000000000
     40709     13570  TIP3      H1            -34.2385305720       27.5482375841        1.6050936648  W2        14121           0.0000000000
     40710     13570  TIP3      H2            -33.6500205720       28.2235575841        0.3846536648  W2        14121           0.0000000000
     40711     13571  TIP3      OH2           -28.9506005720       29.3894475841        0.8102536648  W2        14123           0.0000000000
     40712     13571  TIP3      H1            -29.2191905720       29.5696575841        1.7111436648  W2        14123           0.0000000000
     40713     13571  TIP3      H2            -29.1570405720       28.4640675841        0.6788336648  W2        14123           0.0000000000
     40714     13572  TIP3      OH2           -26.2541805720       27.8842475841       15.7578636648  W2        14124           0.0000000000
     40715     13572  TIP3      H1            -25.5087005720       28.4726175841       15.6382636648  W2        14124           0.0000000000
     40716     13572  TIP3      H2            -27.0115005720       28.4662175841       15.8211736648  W2        14124           0.0000000000
     40717     13573  TIP3      OH2           -33.1535605720       26.3148975841        3.3802536648  W2        14126           0.0000000000
     40718     13573  TIP3      H1            -33.6133605720       25.8307275841        4.0661036648  W2        14126           0.0000000000
     40719     13573  TIP3      H2            -32.8986905720       25.6464375841        2.7443036648  W2        14126           0.0000000000
     40720     13574  TIP3      OH2           -33.8646305720       24.2076075841       15.7362136648  W2        14127           0.0000000000
     40721     13574  TIP3      H1            -34.4830205720       24.8822675841       16.0166836648  W2        14127           0.0000000000
     40722     13574  TIP3      H2            -33.5205105720       24.5289975841       14.9028336648  W2        14127           0.0000000000
     40723     13575  TIP3      OH2           -32.0825205720       24.5580775841        1.6425736648  W2        14128           0.0000000000
     40724     13575  TIP3      H1            -32.2630205720       24.4031975841        0.7154036648  W2        14128           0.0000000000
     40725     13575  TIP3      H2            -31.1324705720       24.6659475841        1.6873636648  W2        14128           0.0000000000
     40726     13576  TIP3      OH2           -22.6926905720       26.9124975841        1.0883836648  W2        14130           0.0000000000
     40727     13576  TIP3      H1            -22.9662105720       26.4880475841        0.2752136648  W2        14130           0.0000000000
     40728     13576  TIP3      H2            -22.6532805720       27.8439475841        0.8714236648  W2        14130           0.0000000000
     40729     13577  TIP3      OH2           -33.5252605720       21.5626875841       16.8185236648  W2        14131           0.0000000000
     40730     13577  TIP3      H1            -33.3751705720       20.8338175841       16.2164936648  W2        14131           0.0000000000
     40731     13577  TIP3      H2            -33.5230205720       22.3398575841       16.2597436648  W2        14131           0.0000000000
     40732     13578  TIP3      OH2           -33.1126905720       19.9322675841       14.3112636648  W2        14132           0.0000000000
     40733     13578  TIP3      H1            -32.5769405720       20.3839375841       13.6591936648  W2        14132           0.0000000000
     40734     13578  TIP3      H2            -33.9647305720       19.8242475841       13.8886736648  W2        14132           0.0000000000
     40735     13579  TIP3      OH2           -31.5308505720       25.3718875841       14.5507836648  W2        14133           0.0000000000
     40736     13579  TIP3      H1            -30.7803705720       25.2156375841       13.9775636648  W2        14133           0.0000000000
     40737     13579  TIP3      H2            -31.8700205720       26.2235475841       14.2753336648  W2        14133           0.0000000000
     40738     13580  TIP3      OH2           -25.7985105720       25.9755875841       17.6565836648  W2        14135           0.0000000000
     40739     13580  TIP3      H1            -26.0800105720       26.6850475841       17.0789636648  W2        14135           0.0000000000
     40740     13580  TIP3      H2            -24.8560805720       25.9028875841       17.5057036648  W2        14135           0.0000000000
     40741     13581  TIP3      OH2           -32.3071405720       17.3888375841       14.7426236648  W2        14137           0.0000000000
     40742     13581  TIP3      H1            -32.4051805720       18.3351575841       14.6372436648  W2        14137           0.0000000000
     40743     13581  TIP3      H2            -33.0495205720       17.0162175841       14.2669736648  W2        14137           0.0000000000
     40744     13582  TIP3      OH2           -28.3274305720       20.8377275841       17.3818136648  W2        14139           0.0000000000
     40745     13582  TIP3      H1            -29.2748905720       20.8696975841       17.5141436648  W2        14139           0.0000000000
     40746     13582  TIP3      H2            -28.0147605720       20.2124375841       18.0356336648  W2        14139           0.0000000000
     40747     13583  TIP3      OH2           -32.0853305720       16.6825775841       17.4139036648  W2        14142           0.0000000000
     40748     13583  TIP3      H1            -31.3734905720       16.0427975841       17.3998136648  W2        14142           0.0000000000
     40749     13583  TIP3      H2            -32.1862905720       16.9494075841       16.5002136648  W2        14142           0.0000000000
     40750     13584  TIP3      OH2           -32.1853505720       35.2484475841        2.6439336648  W2        14144           0.0000000000
     40751     13584  TIP3      H1            -31.2522805720       35.4063175841        2.7877736648  W2        14144           0.0000000000
     40752     13584  TIP3      H2            -32.4494705720       35.9237475841        2.0190836648  W2        14144           0.0000000000
     40753     13585  TIP3      OH2           -38.6168605720       29.8848275841        2.1267436648  W2        14145           0.0000000000
     40754     13585  TIP3      H1            -37.7029405720       29.9637175841        2.4001336648  W2        14145           0.0000000000
     40755     13585  TIP3      H2            -38.6095505720       29.1977875841        1.4603036648  W2        14145           0.0000000000
     40756     13586  TIP3      OH2           -39.9678005720       35.2776775841        7.2041336648  W2        14146           0.0000000000
     40757     13586  TIP3      H1            -40.6150905720       34.8158475841        6.6712536648  W2        14146           0.0000000000
     40758     13586  TIP3      H2            -39.6133405720       34.6060075841        7.7867536648  W2        14146           0.0000000000
     40759     13587  TIP3      OH2           -39.0978805720       33.3583775841        9.0087536648  W2        14147           0.0000000000
     40760     13587  TIP3      H1            -39.4322005720       32.4781075841        9.1807736648  W2        14147           0.0000000000
     40761     13587  TIP3      H2            -38.8756405720       33.7038775841        9.8733136648  W2        14147           0.0000000000
     40762     13588  TIP3      OH2           -21.5494005720       34.1680175841       11.9892336648  W2        14148           0.0000000000
     40763     13588  TIP3      H1            -21.5707305720       34.3528575841       12.9281736648  W2        14148           0.0000000000
     40764     13588  TIP3      H2            -20.8587805720       34.7364175841       11.6483736648  W2        14148           0.0000000000
     40765     13589  TIP3      OH2           -21.9861105720       33.7351275841       14.9111436648  W2        14149           0.0000000000
     40766     13589  TIP3      H1            -22.4732405720       32.9995375841       14.5398836648  W2        14149           0.0000000000
     40767     13589  TIP3      H2            -21.4368405720       33.3415175841       15.5890836648  W2        14149           0.0000000000
     40768     13590  TIP3      OH2           -22.2344105720       27.7813075841        5.0634236648  W2        14151           0.0000000000
     40769     13590  TIP3      H1            -21.3842705720       28.2023975841        5.1905836648  W2        14151           0.0000000000
     40770     13590  TIP3      H2            -22.2289005720       27.0413175841        5.6705636648  W2        14151           0.0000000000
     40771     13591  TIP3      OH2           -21.8398505720       25.8350475841        6.8869936648  W2        14152           0.0000000000
     40772     13591  TIP3      H1            -22.5663905720       25.3553075841        7.2847536648  W2        14152           0.0000000000
     40773     13591  TIP3      H2            -21.2585205720       26.0405175841        7.6191536648  W2        14152           0.0000000000
     40774     13592  TIP3      OH2           -22.0807305720       28.6197975841       11.8347536648  W2        14153           0.0000000000
     40775     13592  TIP3      H1            -21.2473105720       28.2417975841       11.5541136648  W2        14153           0.0000000000
     40776     13592  TIP3      H2            -21.9687005720       29.5629175841       11.7156636648  W2        14153           0.0000000000
     40777     13593  TIP3      OH2           -23.5945005720       31.4975475841       14.1415936648  W2        14154           0.0000000000
     40778     13593  TIP3      H1            -24.2419705720       31.8226975841       14.7671136648  W2        14154           0.0000000000
     40779     13593  TIP3      H2            -24.1121005720       31.0573175841       13.4674236648  W2        14154           0.0000000000
     40780     13594  TIP3      OH2           -21.5715405720       25.7358975841        3.2781236648  W2        14155           0.0000000000
     40781     13594  TIP3      H1            -22.0934305720       26.0923075841        2.5592136648  W2        14155           0.0000000000
     40782     13594  TIP3      H2            -21.6046205720       26.4106775841        3.9562136648  W2        14155           0.0000000000
     40783     13595  TIP3      OH2           -23.2226405720       22.9754575841        1.8288336648  W2        14156           0.0000000000
     40784     13595  TIP3      H1            -23.1262005720       23.6421575841        1.1488036648  W2        14156           0.0000000000
     40785     13595  TIP3      H2            -23.3626805720       22.1600875841        1.3473836648  W2        14156           0.0000000000
     40786     13596  TIP3      OH2           -24.0531705720       24.3556975841        7.4498636648  W2        14157           0.0000000000
     40787     13596  TIP3      H1            -24.2032905720       23.4105575841        7.4296436648  W2        14157           0.0000000000
     40788     13596  TIP3      H2            -24.4067205720       24.6368375841        8.2937736648  W2        14157           0.0000000000
     40789     13597  TIP3      OH2           -39.0179305720       26.4339175841       11.4602436648  W2        14158           0.0000000000
     40790     13597  TIP3      H1            -38.8336405720       26.3520875841       10.5245336648  W2        14158           0.0000000000
     40791     13597  TIP3      H2            -38.1686405720       26.3096175841       11.8838836648  W2        14158           0.0000000000
     40792     13598  TIP3      OH2           -23.1968805720       26.3260275841       17.0886936648  W2        14159           0.0000000000
     40793     13598  TIP3      H1            -22.6141505720       25.5912575841       17.2804136648  W2        14159           0.0000000000
     40794     13598  TIP3      H2            -22.6329505720       27.0980575841       17.1352736648  W2        14159           0.0000000000
     40795     13599  TIP3      OH2           -21.7001705720       24.2286075841       17.7732336648  W2        14160           0.0000000000
     40796     13599  TIP3      H1            -22.5635005720       23.8498175841       17.6077036648  W2        14160           0.0000000000
     40797     13599  TIP3      H2            -21.0958005720       23.4900875841       17.6988136648  W2        14160           0.0000000000
     40798     13600  TIP3      OH2           -23.9752605720       20.3834375841        0.9463836648  W2        14161           0.0000000000
     40799     13600  TIP3      H1            -23.3646805720       20.0121175841        1.5832036648  W2        14161           0.0000000000
     40800     13600  TIP3      H2            -24.8121105720       19.9621275841        1.1423836648  W2        14161           0.0000000000
     40801     13601  TIP3      OH2           -24.3426905720       21.9382775841        5.9123736648  W2        14162           0.0000000000
     40802     13601  TIP3      H1            -24.0629805720       21.0313175841        6.0365436648  W2        14162           0.0000000000
     40803     13601  TIP3      H2            -23.5835205720       22.3724275841        5.5232936648  W2        14162           0.0000000000
     40804     13602  TIP3      OH2           -23.7308605720       22.5200175841       11.3482636648  W2        14163           0.0000000000
     40805     13602  TIP3      H1            -22.7980605720       22.7320075841       11.3138636648  W2        14163           0.0000000000
     40806     13602  TIP3      H2            -23.9661105720       22.6212275841       12.2705636648  W2        14163           0.0000000000
     40807     13603  TIP3      OH2           -23.7016705720       23.2565475841       14.1242036648  W2        14164           0.0000000000
     40808     13603  TIP3      H1            -24.5445405720       23.5245875841       14.4901836648  W2        14164           0.0000000000
     40809     13603  TIP3      H2            -23.2592405720       24.0787375841       13.9133136648  W2        14164           0.0000000000
     40810     13604  TIP3      OH2           -39.4204505720       21.7044175841       17.6011236648  W2        14165           0.0000000000
     40811     13604  TIP3      H1            -38.5009605720       21.5822475841       17.8374336648  W2        14165           0.0000000000
     40812     13604  TIP3      H2            -39.8700005720       20.9543875841       17.9904736648  W2        14165           0.0000000000
     40813     13605  TIP3      OH2           -23.7292105720       19.2012075841        5.9605736648  W2        14167           0.0000000000
     40814     13605  TIP3      H1            -23.5467105720       18.7523575841        6.7860736648  W2        14167           0.0000000000
     40815     13605  TIP3      H2            -24.3289205720       18.6166475841        5.4970336648  W2        14167           0.0000000000
     40816     13606  TIP3      OH2           -38.1992005720       20.0165775841       10.4924136648  W2        14168           0.0000000000
     40817     13606  TIP3      H1            -37.7540405720       19.2248275841       10.7943836648  W2        14168           0.0000000000
     40818     13606  TIP3      H2            -37.7329005720       20.7330975841       10.9229736648  W2        14168           0.0000000000
     40819     13607  TIP3      OH2           -39.8951705720       23.0158775841       11.5614336648  W2        14169           0.0000000000
     40820     13607  TIP3      H1            -39.4031905720       22.7949275841       10.7706336648  W2        14169           0.0000000000
     40821     13607  TIP3      H2            -39.5330805720       23.8562175841       11.8423836648  W2        14169           0.0000000000
     40822     13608  TIP3      OH2           -21.8625905720       19.2690175841        2.4886036648  W2        14171           0.0000000000
     40823     13608  TIP3      H1            -21.4503305720       18.5475875841        2.0134036648  W2        14171           0.0000000000
     40824     13608  TIP3      H2            -21.1809405720       19.9384775841        2.5470336648  W2        14171           0.0000000000
     40825     13609  TIP3      OH2           -39.5815205720       19.2737875841        5.6156736648  W2        14172           0.0000000000
     40826     13609  TIP3      H1            -40.5066805720       19.4824475841        5.4862236648  W2        14172           0.0000000000
     40827     13609  TIP3      H2            -39.1275305720       19.7578675841        4.9259036648  W2        14172           0.0000000000
     40828     13610  TIP3      OH2           -24.8108005720       34.2579575841        7.5614136648  W2        14173           0.0000000000
     40829     13610  TIP3      H1            -24.1585105720       33.9101675841        6.9533236648  W2        14173           0.0000000000
     40830     13610  TIP3      H2            -24.3004205720       34.7462775841        8.2073836648  W2        14173           0.0000000000
     40831     13611  TIP3      OH2           -39.6179805720       18.0116875841       13.9599236648  W2        14174           0.0000000000
     40832     13611  TIP3      H1            -40.2829305720       17.7657175841       14.6030136648  W2        14174           0.0000000000
     40833     13611  TIP3      H2            -40.0608505720       18.6337275841       13.3827236648  W2        14174           0.0000000000
     40834     13612  TIP3      OH2           -34.4717605720       32.1612175841       14.3629036648  W2        14176           0.0000000000
     40835     13612  TIP3      H1            -34.8966505720       32.9710675841       14.0803636648  W2        14176           0.0000000000
     40836     13612  TIP3      H2            -33.5674805720       32.2466275841       14.0608836648  W2        14176           0.0000000000
     40837     13613  TIP3      OH2           -30.1606205720       33.5602175841       17.3222736648  W2        14177           0.0000000000
     40838     13613  TIP3      H1            -29.9758705720       33.2268275841       18.2003036648  W2        14177           0.0000000000
     40839     13613  TIP3      H2            -29.3141705720       33.8700775841       17.0001936648  W2        14177           0.0000000000
     40840     13614  TIP3      OH2           -27.8155805720       34.8461075841       16.5664136648  W2        14178           0.0000000000
     40841     13614  TIP3      H1            -27.1386905720       34.2133375841       16.3263336648  W2        14178           0.0000000000
     40842     13614  TIP3      H2            -27.4937005720       35.2471575841       17.3737436648  W2        14178           0.0000000000
     40843     13615  TIP3      OH2           -22.8982005720       17.4356575841       15.6459136648  W2        14179           0.0000000000
     40844     13615  TIP3      H1            -23.7108505720       17.7606875841       15.2583836648  W2        14179           0.0000000000
     40845     13615  TIP3      H2            -22.6653505720       16.6755075841       15.1128236648  W2        14179           0.0000000000
     40846     13616  TIP3      OH2           -37.0700905720       35.4176075841       14.4104336648  W2        14180           0.0000000000
     40847     13616  TIP3      H1            -37.7904505720       35.8577075841       13.9592036648  W2        14180           0.0000000000
     40848     13616  TIP3      H2            -37.4356905720       35.1670775841       15.2588336648  W2        14180           0.0000000000
     40849     13617  TIP3      OH2           -34.6028305720       35.0179975841       13.4401536648  W2        14181           0.0000000000
     40850     13617  TIP3      H1            -35.4676105720       35.0898475841       13.8441636648  W2        14181           0.0000000000
     40851     13617  TIP3      H2            -34.6579305720       35.5647275841       12.6564036648  W2        14181           0.0000000000
     40852     13618  TIP3      OH2           -29.8922705720       34.9058875841       12.6157536648  W2        14182           0.0000000000
     40853     13618  TIP3      H1            -30.3488705720       35.4348575841       11.9615936648  W2        14182           0.0000000000
     40854     13618  TIP3      H2            -29.7294705720       35.5090275841       13.3409836648  W2        14182           0.0000000000
     40855     13619  TIP3      OH2           -27.5646405720       33.7838475841       13.5607836648  W2        14183           0.0000000000
     40856     13619  TIP3      H1            -28.4692705720       33.9488675841       13.2949936648  W2        14183           0.0000000000
     40857     13619  TIP3      H2            -27.1357805720       34.6370675841       13.4951236648  W2        14183           0.0000000000
     40858     13620  TIP3      OH2           -24.9604505720       35.3537575841       13.8555636648  W2        14184           0.0000000000
     40859     13620  TIP3      H1            -25.1422505720       36.2696475841       13.6450536648  W2        14184           0.0000000000
     40860     13620  TIP3      H2            -24.7836705720       34.9434675841       13.0090236648  W2        14184           0.0000000000
     40861     13621  TIP3      OH2           -37.6552805720       34.0408575841       11.3206136648  W2        14185           0.0000000000
     40862     13621  TIP3      H1            -37.6736805720       33.6153675841       12.1778436648  W2        14185           0.0000000000
     40863     13621  TIP3      H2            -36.8504905720       33.7223575841       10.9118336648  W2        14185           0.0000000000
     40864     13622  TIP3      OH2           -35.5139705720       32.7507275841        9.9756036648  W2        14186           0.0000000000
     40865     13622  TIP3      H1            -35.7329005720       31.8344675841       10.1452036648  W2        14186           0.0000000000
     40866     13622  TIP3      H2            -34.6897505720       32.8907675841       10.4417436648  W2        14186           0.0000000000
     40867     13623  TIP3      OH2           -32.9767205720       33.2206575841       10.8244036648  W2        14187           0.0000000000
     40868     13623  TIP3      H1            -32.7641505720       32.3325575841       10.5374936648  W2        14187           0.0000000000
     40869     13623  TIP3      H2            -32.9122105720       33.1864275841       11.7788036648  W2        14187           0.0000000000
     40870     13624  TIP3      OH2           -29.4683505720       18.8847175841        9.9687336648  W2        14188           0.0000000000
     40871     13624  TIP3      H1            -30.1426705720       18.2552775841       10.2243136648  W2        14188           0.0000000000
     40872     13624  TIP3      H2            -28.9044305720       18.4006075841        9.3655236648  W2        14188           0.0000000000
     40873     13625  TIP3      OH2           -24.3256305720       16.9921175841       10.0814436648  W2        14189           0.0000000000
     40874     13625  TIP3      H1            -23.7218705720       17.5396575841        9.5795436648  W2        14189           0.0000000000
     40875     13625  TIP3      H2            -25.1954305720       17.3111575841        9.8408536648  W2        14189           0.0000000000
     40876     13626  TIP3      OH2           -22.5985905720       18.1309875841        8.4145336648  W2        14190           0.0000000000
     40877     13626  TIP3      H1            -21.9868405720       17.6165575841        7.8878936648  W2        14190           0.0000000000
     40878     13626  TIP3      H2            -22.2162505720       19.0081975841        8.4379736648  W2        14190           0.0000000000
     40879     13627  TIP3      OH2           -37.1416005720       17.5187475841        7.7907236648  W2        14191           0.0000000000
     40880     13627  TIP3      H1            -37.9186205720       17.2842375841        7.2833136648  W2        14191           0.0000000000
     40881     13627  TIP3      H2            -36.6112405720       16.7219575841        7.7995236648  W2        14191           0.0000000000
     40882     13628  TIP3      OH2           -38.3052605720       17.3165575841        3.5943336648  W2        14192           0.0000000000
     40883     13628  TIP3      H1            -37.8661905720       17.9276075841        3.0026836648  W2        14192           0.0000000000
     40884     13628  TIP3      H2            -38.9390205720       17.8549675841        4.0683336648  W2        14192           0.0000000000
     40885     13629  TIP3      OH2           -32.5623405720       17.4454575841        7.6040336648  W2        14193           0.0000000000
     40886     13629  TIP3      H1            -31.6880005720       17.8338875841        7.5744636648  W2        14193           0.0000000000
     40887     13629  TIP3      H2            -32.6982605720       17.2302375841        8.5267536648  W2        14193           0.0000000000
     40888     13630  TIP3      OH2           -27.0055005720       17.4754375841        9.2532036648  W2        14194           0.0000000000
     40889     13630  TIP3      H1            -26.9293405720       17.5705975841        8.3038036648  W2        14194           0.0000000000
     40890     13630  TIP3      H2            -27.2805805720       16.5677275841        9.3821136648  W2        14194           0.0000000000
     40891     13631  TIP3      OH2           -25.6522405720       17.5012175841        4.9457036648  W2        14195           0.0000000000
     40892     13631  TIP3      H1            -26.3551305720       18.1161375841        4.7358436648  W2        14195           0.0000000000
     40893     13631  TIP3      H2            -26.0971005720       16.6638875841        5.0767936648  W2        14195           0.0000000000
     40894     13632  TIP3      OH2           -38.4043105720       33.2647775841        4.4918436648  W2        14196           0.0000000000
     40895     13632  TIP3      H1            -39.0893205720       33.2266675841        3.8243536648  W2        14196           0.0000000000
     40896     13632  TIP3      H2            -38.4005905720       34.1775375841        4.7800536648  W2        14196           0.0000000000
     40897     13633  TIP3      OH2           -36.4443505720       19.2327075841        2.0367436648  W2        14197           0.0000000000
     40898     13633  TIP3      H1            -35.9530105720       18.6029475841        1.5092936648  W2        14197           0.0000000000
     40899     13633  TIP3      H2            -35.8207205720       19.5286475841        2.6998636648  W2        14197           0.0000000000
     40900     13634  TIP3      OH2           -31.4183405720       19.5258575841        4.4937936648  W2        14198           0.0000000000
     40901     13634  TIP3      H1            -31.2402105720       18.8791775841        5.1766536648  W2        14198           0.0000000000
     40902     13634  TIP3      H2            -31.4717205720       20.3596275841        4.9609036648  W2        14198           0.0000000000
     40903     13635  TIP3      OH2           -29.5399605720       34.4742675841        2.8894636648  W2        14199           0.0000000000
     40904     13635  TIP3      H1            -28.6739405720       34.8410075841        2.7112836648  W2        14199           0.0000000000
     40905     13635  TIP3      H2            -29.7866805720       34.0350675841        2.0755436648  W2        14199           0.0000000000
     40906     13636  TIP3      OH2           -22.8310005720       34.0372975841        5.5685736648  W2        14200           0.0000000000
     40907     13636  TIP3      H1            -23.0252905720       33.2895075841        5.0035336648  W2        14200           0.0000000000
     40908     13636  TIP3      H2            -22.8699905720       34.7953075841        4.9853636648  W2        14200           0.0000000000
     40909     13637  TIP3      OH2           -37.1838005720       18.0329375841       17.3083436648  W2        14201           0.0000000000
     40910     13637  TIP3      H1            -37.5499805720       17.2671975841       17.7508136648  W2        14201           0.0000000000
     40911     13637  TIP3      H2            -36.2709505720       18.0619575841       17.5948536648  W2        14201           0.0000000000
     40912     13638  TIP3      OH2           -36.5861905720       34.1848575841        1.5170536648  W2        14203           0.0000000000
     40913     13638  TIP3      H1            -36.8537305720       34.4711475841        2.3903636648  W2        14203           0.0000000000
     40914     13638  TIP3      H2            -35.8149305720       33.6387775841        1.6693036648  W2        14203           0.0000000000
     40915     13639  TIP3      OH2           -23.6133805720       32.7885375841       17.7187536648  W2        14205           0.0000000000
     40916     13639  TIP3      H1            -24.3951905720       32.6023375841       17.1988136648  W2        14205           0.0000000000
     40917     13639  TIP3      H2            -23.6853905720       33.7179675841       17.9360036648  W2        14205           0.0000000000
     40918     13640  TIP3      OH2            -9.2073405720       26.6749775841        7.7494736648  W2        14206           0.0000000000
     40919     13640  TIP3      H1             -9.1182305720       27.6187975841        7.6171836648  W2        14206           0.0000000000
     40920     13640  TIP3      H2             -9.8455805720       26.3996175841        7.0914136648  W2        14206           0.0000000000
     40921     13641  TIP3      OH2           -10.2742105720       25.9300475841       11.1682936648  W2        14207           0.0000000000
     40922     13641  TIP3      H1            -10.3124605720       25.2836775841       11.8732536648  W2        14207           0.0000000000
     40923     13641  TIP3      H2            -10.5965605720       25.4634875841       10.3971636648  W2        14207           0.0000000000
     40924     13642  TIP3      OH2           -17.9057105720       25.5442575841       12.7612836648  W2        14208           0.0000000000
     40925     13642  TIP3      H1            -17.8645005720       24.9185875841       13.4845236648  W2        14208           0.0000000000
     40926     13642  TIP3      H2            -17.2029405720       26.1681175841       12.9433236648  W2        14208           0.0000000000
     40927     13643  TIP3      OH2            -6.5681905720       28.8690875841        9.4698036648  W2        14209           0.0000000000
     40928     13643  TIP3      H1             -7.0089205720       28.1486875841        9.9203636648  W2        14209           0.0000000000
     40929     13643  TIP3      H2             -6.5812205720       29.5898075841       10.0995736648  W2        14209           0.0000000000
     40930     13644  TIP3      OH2           -16.9824005720       29.9941475841       11.2961936648  W2        14210           0.0000000000
     40931     13644  TIP3      H1            -17.3518805720       29.1921975841       10.9266236648  W2        14210           0.0000000000
     40932     13644  TIP3      H2            -16.0412905720       29.8256375841       11.3425336648  W2        14210           0.0000000000
     40933     13645  TIP3      OH2           -20.3723505720       23.6544075841        6.6890736648  W2        14211           0.0000000000
     40934     13645  TIP3      H1            -20.8200105720       24.5002775841        6.6707236648  W2        14211           0.0000000000
     40935     13645  TIP3      H2            -20.9332305720       23.0748275841        6.1735836648  W2        14211           0.0000000000
     40936     13646  TIP3      OH2           -19.6617405720       25.8163675841        8.8148736648  W2        14212           0.0000000000
     40937     13646  TIP3      H1            -19.4483905720       25.0465275841        9.3421736648  W2        14212           0.0000000000
     40938     13646  TIP3      H2            -18.9239805720       25.9060375841        8.2116336648  W2        14212           0.0000000000
     40939     13647  TIP3      OH2            -9.4566405720       33.9732575841        9.6818436648  W2        14213           0.0000000000
     40940     13647  TIP3      H1             -8.8370005720       33.2967275841        9.4087636648  W2        14213           0.0000000000
     40941     13647  TIP3      H2             -9.6649005720       33.7553375841       10.5903336648  W2        14213           0.0000000000
     40942     13648  TIP3      OH2           -11.8847705720       28.3621875841       11.5743936648  W2        14214           0.0000000000
     40943     13648  TIP3      H1            -11.5809805720       27.6763275841       10.9798036648  W2        14214           0.0000000000
     40944     13648  TIP3      H2            -11.1633705720       28.4810575841       12.1921936648  W2        14214           0.0000000000
     40945     13649  TIP3      OH2            -3.2217905720       19.9637175841       12.4350136648  W2        14215           0.0000000000
     40946     13649  TIP3      H1             -3.1725705720       20.5738375841       13.1709236648  W2        14215           0.0000000000
     40947     13649  TIP3      H2             -2.7962805720       20.4248075841       11.7121236648  W2        14215           0.0000000000
     40948     13650  TIP3      OH2            -8.7440705720       22.7564275841       11.9018736648  W2        14216           0.0000000000
     40949     13650  TIP3      H1             -8.6014805720       21.8101275841       11.9220336648  W2        14216           0.0000000000
     40950     13650  TIP3      H2             -8.8501705720       22.9634075841       10.9733636648  W2        14216           0.0000000000
     40951     13651  TIP3      OH2           -15.5892405720       20.8580675841        9.1743536648  W2        14217           0.0000000000
     40952     13651  TIP3      H1            -15.5461305720       21.7179175841        8.7559836648  W2        14217           0.0000000000
     40953     13651  TIP3      H2            -16.0468305720       20.3055375841        8.5406736648  W2        14217           0.0000000000
     40954     13652  TIP3      OH2            -7.8669705720       20.9886275841        7.5751836648  W2        14218           0.0000000000
     40955     13652  TIP3      H1             -7.2205405720       20.6599475841        8.1999436648  W2        14218           0.0000000000
     40956     13652  TIP3      H2             -7.3570305720       21.5065275841        6.9523236648  W2        14218           0.0000000000
     40957     13653  TIP3      OH2           -18.9690905720       23.2546475841        9.9364936648  W2        14219           0.0000000000
     40958     13653  TIP3      H1            -18.3154305720       22.7048175841       10.3685036648  W2        14219           0.0000000000
     40959     13653  TIP3      H2            -18.9451605720       22.9805475841        9.0196936648  W2        14219           0.0000000000
     40960     13654  TIP3      OH2           -13.8126405720       24.8047775841        9.1516436648  W2        14220           0.0000000000
     40961     13654  TIP3      H1            -13.1965405720       24.2783175841        9.6610436648  W2        14220           0.0000000000
     40962     13654  TIP3      H2            -14.3987605720       24.1646475841        8.7480036648  W2        14220           0.0000000000
     40963     13655  TIP3      OH2            -2.8303305720       21.4416375841       14.6709936648  W2        14221           0.0000000000
     40964     13655  TIP3      H1             -3.5188705720       22.0997075841       14.5756536648  W2        14221           0.0000000000
     40965     13655  TIP3      H2             -2.8148705720       21.2444275841       15.6075336648  W2        14221           0.0000000000
     40966     13656  TIP3      OH2           -16.7790505720       19.7759075841       13.2484336648  W2        14222           0.0000000000
     40967     13656  TIP3      H1            -16.9978805720       20.3059675841       12.4820336648  W2        14222           0.0000000000
     40968     13656  TIP3      H2            -17.4469605720       20.0024575841       13.8955736648  W2        14222           0.0000000000
     40969     13657  TIP3      OH2            -9.4100705720       29.2760175841        6.7923436648  W2        14223           0.0000000000
     40970     13657  TIP3      H1             -9.7055605720       28.9532475841        5.9410336648  W2        14223           0.0000000000
     40971     13657  TIP3      H2             -9.7342905720       30.1756875841        6.8336036648  W2        14223           0.0000000000
     40972     13658  TIP3      OH2           -14.2099105720       27.4514775841       13.5358036648  W2        14224           0.0000000000
     40973     13658  TIP3      H1            -14.9500005720       28.0496275841       13.6393236648  W2        14224           0.0000000000
     40974     13658  TIP3      H2            -13.4959605720       28.0054375841       13.2201636648  W2        14224           0.0000000000
     40975     13659  TIP3      OH2            -6.1031305720       20.2795575841        9.5557736648  W2        14225           0.0000000000
     40976     13659  TIP3      H1             -6.3183305720       19.5138975841       10.0883736648  W2        14225           0.0000000000
     40977     13659  TIP3      H2             -5.4473905720       20.7520175841       10.0686236648  W2        14225           0.0000000000
     40978     13660  TIP3      OH2           -17.1853205720       21.6680875841       11.2006536648  W2        14226           0.0000000000
     40979     13660  TIP3      H1            -16.5716905720       22.3008475841       11.5738936648  W2        14226           0.0000000000
     40980     13660  TIP3      H2            -16.6732505720       21.1955875841       10.5443436648  W2        14226           0.0000000000
     40981     13661  TIP3      OH2           -15.8024805720       29.4157775841       14.3229536648  W2        14227           0.0000000000
     40982     13661  TIP3      H1            -15.8077205720       30.2951275841       13.9448836648  W2        14227           0.0000000000
     40983     13661  TIP3      H2            -16.6560705720       29.3321875841       14.7479436648  W2        14227           0.0000000000
     40984     13662  TIP3      OH2           -19.6813905720       29.0865675841        5.1048836648  W2        14228           0.0000000000
     40985     13662  TIP3      H1            -19.9533005720       29.3156675841        4.2161736648  W2        14228           0.0000000000
     40986     13662  TIP3      H2            -19.6358205720       29.9244475841        5.5654136648  W2        14228           0.0000000000
     40987     13663  TIP3      OH2            -6.0564205720       30.7081575841       11.8177336648  W2        14229           0.0000000000
     40988     13663  TIP3      H1             -6.9980505720       30.7665475841       11.9794236648  W2        14229           0.0000000000
     40989     13663  TIP3      H2             -5.7798105720       31.6142075841       11.6807036648  W2        14229           0.0000000000
     40990     13664  TIP3      OH2            -5.7557205720       18.9946875841       13.2351236648  W2        14230           0.0000000000
     40991     13664  TIP3      H1             -6.4918005720       19.6053975841       13.1972536648  W2        14230           0.0000000000
     40992     13664  TIP3      H2             -5.0723205720       19.4095875841       12.7087636648  W2        14230           0.0000000000
     40993     13665  TIP3      OH2           -12.7525805720       17.0814175841       10.7009236648  W2        14231           0.0000000000
     40994     13665  TIP3      H1            -12.8701605720       16.1330175841       10.6467536648  W2        14231           0.0000000000
     40995     13665  TIP3      H2            -13.6075705720       17.4140275841       10.9740336648  W2        14231           0.0000000000
     40996     13666  TIP3      OH2            -7.8043005720       32.4895075841        8.4428936648  W2        14232           0.0000000000
     40997     13666  TIP3      H1             -7.3790705720       31.7822975841        7.9578536648  W2        14232           0.0000000000
     40998     13666  TIP3      H2             -7.4873005720       33.2907775841        8.0261136648  W2        14232           0.0000000000
     40999     13667  TIP3      OH2            -6.6446505720       30.3903575841        6.9515536648  W2        14233           0.0000000000
     41000     13667  TIP3      H1             -6.9021705720       29.7003675841        6.3401436648  W2        14233           0.0000000000
     41001     13667  TIP3      H2             -6.5735705720       29.9474775841        7.7971436648  W2        14233           0.0000000000
     41002     13668  TIP3      OH2            -4.9586305720       28.9570275841       15.4289036648  W2        14234           0.0000000000
     41003     13668  TIP3      H1             -4.8190005720       28.3652775841       14.6896036648  W2        14234           0.0000000000
     41004     13668  TIP3      H2             -4.7913505720       29.8296175841       15.0727836648  W2        14234           0.0000000000
     41005     13669  TIP3      OH2           -10.4860905720       25.9189775841        5.2015036648  W2        14235           0.0000000000
     41006     13669  TIP3      H1            -11.1975405720       26.4539475841        4.8495536648  W2        14235           0.0000000000
     41007     13669  TIP3      H2             -9.7951305720       25.9741875841        4.5413936648  W2        14235           0.0000000000
     41008     13670  TIP3      OH2           -10.4321705720       24.3764075841        2.2400036648  W2        14236           0.0000000000
     41009     13670  TIP3      H1             -9.7311805720       24.3990975841        2.8914036648  W2        14236           0.0000000000
     41010     13670  TIP3      H2            -10.1298805720       23.7483775841        1.5839336648  W2        14236           0.0000000000
     41011     13671  TIP3      OH2            -3.1167005720       25.2968275841       13.4949436648  W2        14237           0.0000000000
     41012     13671  TIP3      H1             -3.7692905720       25.9913875841       13.5840336648  W2        14237           0.0000000000
     41013     13671  TIP3      H2             -2.6516705720       25.5069175841       12.6851036648  W2        14237           0.0000000000
     41014     13672  TIP3      OH2            -7.0803205720       26.1283075841        6.1530936648  W2        14238           0.0000000000
     41015     13672  TIP3      H1             -7.8122205720       26.3566775841        6.7261536648  W2        14238           0.0000000000
     41016     13672  TIP3      H2             -6.6331005720       25.4145775841        6.6078436648  W2        14238           0.0000000000
     41017     13673  TIP3      OH2            -7.1829705720       24.3025675841       15.2207936648  W2        14239           0.0000000000
     41018     13673  TIP3      H1             -7.1030605720       25.0660075841       15.7926436648  W2        14239           0.0000000000
     41019     13673  TIP3      H2             -7.7842005720       24.5818075841       14.5303036648  W2        14239           0.0000000000
     41020     13674  TIP3      OH2           -15.4349505720       26.7589275841        8.0355936648  W2        14240           0.0000000000
     41021     13674  TIP3      H1            -15.7654305720       26.3882675841        7.2172936648  W2        14240           0.0000000000
     41022     13674  TIP3      H2            -14.8465405720       26.0883275841        8.3824236648  W2        14240           0.0000000000
     41023     13675  TIP3      OH2           -14.0682005720       30.1869875841       10.7168136648  W2        14241           0.0000000000
     41024     13675  TIP3      H1            -14.1630705720       29.6082975841        9.9602736648  W2        14241           0.0000000000
     41025     13675  TIP3      H2            -13.3388405720       29.8155575841       11.2130936648  W2        14241           0.0000000000
     41026     13676  TIP3      OH2           -15.0684005720       25.5274875841       11.6690936648  W2        14242           0.0000000000
     41027     13676  TIP3      H1            -14.5031505720       25.6489075841       10.9062136648  W2        14242           0.0000000000
     41028     13676  TIP3      H2            -14.7495105720       26.1649875841       12.3079436648  W2        14242           0.0000000000
     41029     13677  TIP3      OH2            -8.7591805720       31.0306775841       12.4031436648  W2        14243           0.0000000000
     41030     13677  TIP3      H1             -8.9995205720       31.6929875841       13.0510636648  W2        14243           0.0000000000
     41031     13677  TIP3      H2             -8.9573605720       30.1961975841       12.8281036648  W2        14243           0.0000000000
     41032     13678  TIP3      OH2           -14.1883305720       29.9267575841       16.3862836648  W2        14244           0.0000000000
     41033     13678  TIP3      H1            -14.4995805720       30.7090775841       16.8416036648  W2        14244           0.0000000000
     41034     13678  TIP3      H2            -14.8383105720       29.7736675841       15.7004836648  W2        14244           0.0000000000
     41035     13679  TIP3      OH2            -8.2093705720       25.2905975841        3.8382136648  W2        14245           0.0000000000
     41036     13679  TIP3      H1             -7.6298205720       25.4406275841        4.5851036648  W2        14245           0.0000000000
     41037     13679  TIP3      H2             -7.7953705720       25.7613375841        3.1148536648  W2        14245           0.0000000000
     41038     13680  TIP3      OH2           -17.2683405720       26.1248675841       15.6148536648  W2        14246           0.0000000000
     41039     13680  TIP3      H1            -17.1980205720       26.7755475841       16.3133536648  W2        14246           0.0000000000
     41040     13680  TIP3      H2            -18.1591205720       26.2276175841       15.2799436648  W2        14246           0.0000000000
     41041     13681  TIP3      OH2           -10.4828805720       32.0274475841        7.2735236648  W2        14247           0.0000000000
     41042     13681  TIP3      H1            -10.0091205720       32.3230775841        8.0509436648  W2        14247           0.0000000000
     41043     13681  TIP3      H2            -11.0459505720       32.7656075841        7.0404836648  W2        14247           0.0000000000
     41044     13682  TIP3      OH2           -15.9487405720       31.9982575841       17.1496636648  W2        14248           0.0000000000
     41045     13682  TIP3      H1            -15.9412105720       31.8622275841       16.2022136648  W2        14248           0.0000000000
     41046     13682  TIP3      H2            -16.8647005720       31.8810675841       17.4016636648  W2        14248           0.0000000000
     41047     13683  TIP3      OH2            -4.5105305720       17.0406375841        3.6511836648  W2        14249           0.0000000000
     41048     13683  TIP3      H1             -5.4104605720       17.1795375841        3.9462436648  W2        14249           0.0000000000
     41049     13683  TIP3      H2             -4.2586905720       17.8720975841        3.2493536648  W2        14249           0.0000000000
     41050     13684  TIP3      OH2           -16.4446805720       25.8283575841        5.6248736648  W2        14250           0.0000000000
     41051     13684  TIP3      H1            -16.7365505720       26.5965275841        5.1340036648  W2        14250           0.0000000000
     41052     13684  TIP3      H2            -17.1191605720       25.1689775841        5.4620136648  W2        14250           0.0000000000
     41053     13685  TIP3      OH2            -3.3213905720       31.4068775841        2.0275736648  W2        14251           0.0000000000
     41054     13685  TIP3      H1             -3.2480405720       32.3458975841        2.1981036648  W2        14251           0.0000000000
     41055     13685  TIP3      H2             -2.4158805720       31.1017375841        1.9713036648  W2        14251           0.0000000000
     41056     13686  TIP3      OH2           -20.3516705720       28.1912775841       14.4398536648  W2        14252           0.0000000000
     41057     13686  TIP3      H1            -20.8528305720       28.1632175841       13.6248236648  W2        14252           0.0000000000
     41058     13686  TIP3      H2            -20.3463005720       27.2855975841       14.7495836648  W2        14252           0.0000000000
     41059     13687  TIP3      OH2           -20.6014005720       30.9716575841       11.3238736648  W2        14253           0.0000000000
     41060     13687  TIP3      H1            -19.6553405720       30.8273575841       11.3048236648  W2        14253           0.0000000000
     41061     13687  TIP3      H2            -20.7137705720       31.7559375841       11.8609936648  W2        14253           0.0000000000
     41062     13688  TIP3      OH2            -2.4035505720       31.6376275841       17.0062436648  W2        14254           0.0000000000
     41063     13688  TIP3      H1             -2.4528705720       30.6824375841       16.9690036648  W2        14254           0.0000000000
     41064     13688  TIP3      H2             -3.2303205720       31.9051575841       17.4076236648  W2        14254           0.0000000000
     41065     13689  TIP3      OH2           -11.4251505720       31.2115475841       15.8823836648  W2        14255           0.0000000000
     41066     13689  TIP3      H1            -11.3376905720       32.0380075841       16.3572936648  W2        14255           0.0000000000
     41067     13689  TIP3      H2            -12.2886405720       30.8819275841       16.1313136648  W2        14255           0.0000000000
     41068     13690  TIP3      OH2           -11.0105705720       34.9839175841        5.6884436648  W2        14256           0.0000000000
     41069     13690  TIP3      H1            -11.0859705720       34.8626375841        4.7419636648  W2        14256           0.0000000000
     41070     13690  TIP3      H2            -10.9777005720       35.9331875841        5.8069036648  W2        14256           0.0000000000
     41071     13691  TIP3      OH2           -17.3571905720       33.7726175841        7.4693436648  W2        14257           0.0000000000
     41072     13691  TIP3      H1            -17.2051505720       33.4246575841        8.3479936648  W2        14257           0.0000000000
     41073     13691  TIP3      H2            -18.2081505720       33.4163475841        7.2140636648  W2        14257           0.0000000000
     41074     13692  TIP3      OH2            -7.9089705720       34.1379375841        2.6906836648  W2        14258           0.0000000000
     41075     13692  TIP3      H1             -7.5341305720       33.3935475841        2.2199436648  W2        14258           0.0000000000
     41076     13692  TIP3      H2             -7.9046005720       33.8679975841        3.6090136648  W2        14258           0.0000000000
     41077     13693  TIP3      OH2            -8.2401605720       34.0636475841        5.4399036648  W2        14259           0.0000000000
     41078     13693  TIP3      H1             -9.1751805720       34.1638375841        5.6186036648  W2        14259           0.0000000000
     41079     13693  TIP3      H2             -7.9599705720       33.3542475841        6.0182236648  W2        14259           0.0000000000
     41080     13694  TIP3      OH2            -5.2515705720       23.1308775841       17.4864636648  W2        14260           0.0000000000
     41081     13694  TIP3      H1             -5.6588905720       23.6114375841       16.7657936648  W2        14260           0.0000000000
     41082     13694  TIP3      H2             -5.2110005720       22.2254775841       17.1785436648  W2        14260           0.0000000000
     41083     13695  TIP3      OH2           -18.1026205720       29.5148175841       15.4831336648  W2        14261           0.0000000000
     41084     13695  TIP3      H1            -17.8864905720       29.1533775841       16.3427136648  W2        14261           0.0000000000
     41085     13695  TIP3      H2            -18.9581505720       29.1401975841       15.2734836648  W2        14261           0.0000000000
     41086     13696  TIP3      OH2           -15.4838205720       17.9848675841       11.4785536648  W2        14262           0.0000000000
     41087     13696  TIP3      H1            -16.3454505720       17.8976875841       11.0708436648  W2        14262           0.0000000000
     41088     13696  TIP3      H2            -15.5062505720       18.8408775841       11.9063136648  W2        14262           0.0000000000
     41089     13697  TIP3      OH2           -10.8210405720       17.7069075841       14.8532536648  W2        14263           0.0000000000
     41090     13697  TIP3      H1            -10.4007305720       17.2916175841       15.6063136648  W2        14263           0.0000000000
     41091     13697  TIP3      H2            -11.7540805720       17.5282375841       14.9704536648  W2        14263           0.0000000000
     41092     13698  TIP3      OH2            -7.4945505720       21.4624275841       15.7067036648  W2        14264           0.0000000000
     41093     13698  TIP3      H1             -8.0086005720       21.3366475841       16.5043036648  W2        14264           0.0000000000
     41094     13698  TIP3      H2             -7.6500805720       22.3747375841       15.4623236648  W2        14264           0.0000000000
     41095     13699  TIP3      OH2            -6.7320605720       26.3234275841        1.4680036648  W2        14265           0.0000000000
     41096     13699  TIP3      H1             -6.6899805720       26.1008175841        0.5380036648  W2        14265           0.0000000000
     41097     13699  TIP3      H2             -5.8828505720       26.7221375841        1.6579936648  W2        14265           0.0000000000
     41098     13700  TIP3      OH2           -11.1593105720       20.1992475841        2.1383336648  W2        14266           0.0000000000
     41099     13700  TIP3      H1            -11.4128305720       20.2184075841        3.0611436648  W2        14266           0.0000000000
     41100     13700  TIP3      H2            -11.4161005720       19.3277875841        1.8369536648  W2        14266           0.0000000000
     41101     13701  TIP3      OH2           -15.3928105720       22.9503175841       12.5735736648  W2        14267           0.0000000000
     41102     13701  TIP3      H1            -16.0346005720       22.9100475841       13.2825836648  W2        14267           0.0000000000
     41103     13701  TIP3      H2            -15.3556105720       23.8767875841       12.3358736648  W2        14267           0.0000000000
     41104     13702  TIP3      OH2           -15.3959005720       23.1713275841        7.4855736648  W2        14268           0.0000000000
     41105     13702  TIP3      H1            -16.2886105720       22.8309375841        7.4269536648  W2        14268           0.0000000000
     41106     13702  TIP3      H2            -14.9452405720       22.7944175841        6.7298936648  W2        14268           0.0000000000
     41107     13703  TIP3      OH2            -9.8603505720       23.5873575841        6.3026536648  W2        14269           0.0000000000
     41108     13703  TIP3      H1            -10.2693205720       24.4022175841        6.0111336648  W2        14269           0.0000000000
     41109     13703  TIP3      H2             -9.1397305720       23.4473675841        5.6883636648  W2        14269           0.0000000000
     41110     13704  TIP3      OH2           -10.7581905720       23.7629975841       17.7907236648  W2        14270           0.0000000000
     41111     13704  TIP3      H1            -11.3208105720       23.0581575841       18.1115036648  W2        14270           0.0000000000
     41112     13704  TIP3      H2             -9.9318505720       23.6421875841       18.2584836648  W2        14270           0.0000000000
     41113     13705  TIP3      OH2            -8.8555805720       23.0333975841        9.1166236648  W2        14271           0.0000000000
     41114     13705  TIP3      H1             -9.0511305720       23.6390775841        8.4016836648  W2        14271           0.0000000000
     41115     13705  TIP3      H2             -8.6743205720       22.1999175841        8.6822536648  W2        14271           0.0000000000
     41116     13706  TIP3      OH2           -17.6427605720       23.2706675841       14.4407736648  W2        14272           0.0000000000
     41117     13706  TIP3      H1            -17.6808205720       23.6708275841       15.3094836648  W2        14272           0.0000000000
     41118     13706  TIP3      H2            -18.1336505720       22.4539075841       14.5310636648  W2        14272           0.0000000000
     41119     13707  TIP3      OH2           -14.2770205720       20.6448975841        1.2393736648  W2        14273           0.0000000000
     41120     13707  TIP3      H1            -14.7079505720       20.1999075841        1.9691136648  W2        14273           0.0000000000
     41121     13707  TIP3      H2            -14.9951505720       21.0165275841        0.7271236648  W2        14273           0.0000000000
     41122     13708  TIP3      OH2           -21.0346805720       20.3868475841        8.2912436648  W2        14274           0.0000000000
     41123     13708  TIP3      H1            -20.4039105720       20.3580575841        9.0106336648  W2        14274           0.0000000000
     41124     13708  TIP3      H2            -20.5852505720       19.9617175841        7.5608336648  W2        14274           0.0000000000
     41125     13709  TIP3      OH2           -19.7604705720       21.1330475841        3.7152836648  W2        14275           0.0000000000
     41126     13709  TIP3      H1            -19.2863005720       21.7240375841        3.1303736648  W2        14275           0.0000000000
     41127     13709  TIP3      H2            -20.4778305720       21.6633375841        4.0622936648  W2        14275           0.0000000000
     41128     13710  TIP3      OH2            -9.5916605720       24.6715275841       13.7878636648  W2        14276           0.0000000000
     41129     13710  TIP3      H1             -9.2681805720       24.0404975841       13.1449136648  W2        14276           0.0000000000
     41130     13710  TIP3      H2            -10.0317305720       24.1367475841       14.4486036648  W2        14276           0.0000000000
     41131     13711  TIP3      OH2           -12.8143705720       20.5990775841        8.5719836648  W2        14277           0.0000000000
     41132     13711  TIP3      H1            -13.7252605720       20.6557575841        8.8605836648  W2        14277           0.0000000000
     41133     13711  TIP3      H2            -12.3090805720       20.5386275841        9.3827036648  W2        14277           0.0000000000
     41134     13712  TIP3      OH2           -17.9860305720       22.2277075841        7.3987436648  W2        14278           0.0000000000
     41135     13712  TIP3      H1            -18.8752305720       22.3272575841        7.0587036648  W2        14278           0.0000000000
     41136     13712  TIP3      H2            -17.6895405720       21.3860075841        7.0525336648  W2        14278           0.0000000000
     41137     13713  TIP3      OH2           -14.3328505720       22.2279675841        5.0552036648  W2        14279           0.0000000000
     41138     13713  TIP3      H1            -13.4013005720       22.3569675841        5.2335136648  W2        14279           0.0000000000
     41139     13713  TIP3      H2            -14.5478205720       22.8973975841        4.4056736648  W2        14279           0.0000000000
     41140     13714  TIP3      OH2            -8.4091805720       19.8337075841       11.8361636648  W2        14280           0.0000000000
     41141     13714  TIP3      H1             -9.0860205720       19.9650175841       12.5001336648  W2        14280           0.0000000000
     41142     13714  TIP3      H2             -8.8946905720       19.6786575841       11.0259336648  W2        14280           0.0000000000
     41143     13715  TIP3      OH2           -15.6588305720       23.4221875841        2.6218136648  W2        14281           0.0000000000
     41144     13715  TIP3      H1            -16.2013205720       23.0425675841        1.9305736648  W2        14281           0.0000000000
     41145     13715  TIP3      H2            -14.8253405720       23.6166575841        2.1932236648  W2        14281           0.0000000000
     41146     13716  TIP3      OH2           -17.5236905720       27.9793775841       17.7209736648  W2        14283           0.0000000000
     41147     13716  TIP3      H1            -16.7914505720       28.2339675841       18.2824236648  W2        14283           0.0000000000
     41148     13716  TIP3      H2            -18.3038205720       28.1839175841       18.2365136648  W2        14283           0.0000000000
     41149     13717  TIP3      OH2           -11.4944005720       23.3863775841       10.4589436648  W2        14284           0.0000000000
     41150     13717  TIP3      H1            -10.9300605720       22.8400375841        9.9119036648  W2        14284           0.0000000000
     41151     13717  TIP3      H2            -11.6420605720       22.8645675841       11.2477036648  W2        14284           0.0000000000
     41152     13718  TIP3      OH2           -16.4924305720       19.5229875841        6.8774236648  W2        14285           0.0000000000
     41153     13718  TIP3      H1            -16.8094805720       18.6205175841        6.8419636648  W2        14285           0.0000000000
     41154     13718  TIP3      H2            -15.7110205720       19.5247275841        6.3245836648  W2        14285           0.0000000000
     41155     13719  TIP3      OH2           -12.8678105720       21.7749875841       12.8729836648  W2        14286           0.0000000000
     41156     13719  TIP3      H1            -13.7032805720       22.2289375841       12.9832236648  W2        14286           0.0000000000
     41157     13719  TIP3      H2            -12.3437505720       22.0508375841       13.6249736648  W2        14286           0.0000000000
     41158     13720  TIP3      OH2           -12.3235505720       27.9877575841        4.5576236648  W2        14287           0.0000000000
     41159     13720  TIP3      H1            -13.0684505720       27.4802875841        4.2354136648  W2        14287           0.0000000000
     41160     13720  TIP3      H2            -12.4578305720       28.0365575841        5.5041036648  W2        14287           0.0000000000
     41161     13721  TIP3      OH2            -5.1736605720       27.1205775841       13.3443836648  W2        14288           0.0000000000
     41162     13721  TIP3      H1             -4.5317805720       27.5772075841       12.8006036648  W2        14288           0.0000000000
     41163     13721  TIP3      H2             -6.0039705720       27.2338175841       12.8817936648  W2        14288           0.0000000000
     41164     13722  TIP3      OH2            -8.4258705720       20.8017475841        2.7568836648  W2        14289           0.0000000000
     41165     13722  TIP3      H1             -9.3644505720       20.9133075841        2.6057636648  W2        14289           0.0000000000
     41166     13722  TIP3      H2             -8.1286605720       21.6584375841        3.0634536648  W2        14289           0.0000000000
     41167     13723  TIP3      OH2           -10.8043405720       28.1720875841       15.7945336648  W2        14290           0.0000000000
     41168     13723  TIP3      H1            -11.1497305720       27.7903275841       16.6014936648  W2        14290           0.0000000000
     41169     13723  TIP3      H2            -11.0043305720       29.1054475841       15.8658236648  W2        14290           0.0000000000
     41170     13724  TIP3      OH2            -7.7075205720       22.6690175841        4.4176236648  W2        14291           0.0000000000
     41171     13724  TIP3      H1             -6.8156205720       22.5315175841        4.7367436648  W2        14291           0.0000000000
     41172     13724  TIP3      H2             -7.6511605720       23.4596275841        3.8809736648  W2        14291           0.0000000000
     41173     13725  TIP3      OH2           -17.1987205720       27.2827575841       10.3274136648  W2        14292           0.0000000000
     41174     13725  TIP3      H1            -16.4540005720       27.2803275841        9.7260636648  W2        14292           0.0000000000
     41175     13725  TIP3      H2            -17.1210605720       26.4591375841       10.8089236648  W2        14292           0.0000000000
     41176     13726  TIP3      OH2           -10.1981405720       29.4461875841        3.5830836648  W2        14293           0.0000000000
     41177     13726  TIP3      H1            -10.4933005720       30.2729775841        3.9645636648  W2        14293           0.0000000000
     41178     13726  TIP3      H2            -10.9011405720       28.8268775841        3.7792236648  W2        14293           0.0000000000
     41179     13727  TIP3      OH2           -20.1907505720       25.7434475841       15.6422636648  W2        14294           0.0000000000
     41180     13727  TIP3      H1            -19.9678905720       25.3254075841       16.4740136648  W2        14294           0.0000000000
     41181     13727  TIP3      H2            -20.7927405720       25.1309475841       15.2195436648  W2        14294           0.0000000000
     41182     13728  TIP3      OH2            -8.5539805720       30.6336375841       15.7450336648  W2        14296           0.0000000000
     41183     13728  TIP3      H1             -9.4545505720       30.8168975841       15.4774236648  W2        14296           0.0000000000
     41184     13728  TIP3      H2             -8.5198705720       30.8925675841       16.6659136648  W2        14296           0.0000000000
     41185     13729  TIP3      OH2            -2.8226505720       22.8784275841        4.1122936648  W2        14297           0.0000000000
     41186     13729  TIP3      H1             -3.3770205720       22.4822275841        3.4400436648  W2        14297           0.0000000000
     41187     13729  TIP3      H2             -2.7222905720       23.7889475841        3.8346236648  W2        14297           0.0000000000
     41188     13730  TIP3      OH2            -2.8594505720       28.6785975841       16.9494436648  W2        14298           0.0000000000
     41189     13730  TIP3      H1             -3.7106005720       28.9169775841       16.5820836648  W2        14298           0.0000000000
     41190     13730  TIP3      H2             -2.2691105720       28.6619175841       16.1961536648  W2        14298           0.0000000000
     41191     13731  TIP3      OH2            -4.5274805720       31.6644675841        4.5775036648  W2        14299           0.0000000000
     41192     13731  TIP3      H1             -4.9003705720       30.8388475841        4.8865636648  W2        14299           0.0000000000
     41193     13731  TIP3      H2             -4.2501305720       31.4814075841        3.6798436648  W2        14299           0.0000000000
     41194     13732  TIP3      OH2            -7.3670905720       26.4724175841       11.5986936648  W2        14300           0.0000000000
     41195     13732  TIP3      H1             -8.2954005720       26.2406075841       11.5716236648  W2        14300           0.0000000000
     41196     13732  TIP3      H2             -6.9159805720       25.6953975841       11.2685736648  W2        14300           0.0000000000
     41197     13733  TIP3      OH2           -14.8237805720       30.8005775841        7.7315636648  W2        14301           0.0000000000
     41198     13733  TIP3      H1            -14.2965605720       31.5740175841        7.5314436648  W2        14301           0.0000000000
     41199     13733  TIP3      H2            -15.7039305720       31.0254975841        7.4299636648  W2        14301           0.0000000000
     41200     13734  TIP3      OH2           -19.0690105720       25.6629875841        2.3188036648  W2        14302           0.0000000000
     41201     13734  TIP3      H1            -18.4530205720       26.2897075841        2.6982836648  W2        14302           0.0000000000
     41202     13734  TIP3      H2            -19.9307505720       25.9789675841        2.5904536648  W2        14302           0.0000000000
     41203     13735  TIP3      OH2           -13.3965505720       28.4635675841        7.3079936648  W2        14303           0.0000000000
     41204     13735  TIP3      H1            -13.6375505720       29.3890075841        7.3495236648  W2        14303           0.0000000000
     41205     13735  TIP3      H2            -14.1371905720       28.0046975841        7.7043836648  W2        14303           0.0000000000
     41206     13736  TIP3      OH2           -12.8818905720       32.6129275841       13.6231036648  W2        14304           0.0000000000
     41207     13736  TIP3      H1            -12.5194205720       33.4674875841       13.3895436648  W2        14304           0.0000000000
     41208     13736  TIP3      H2            -12.3503705720       32.3210875841       14.3637336648  W2        14304           0.0000000000
     41209     13737  TIP3      OH2           -14.7134705720       33.4853275841        6.8532136648  W2        14305           0.0000000000
     41210     13737  TIP3      H1            -15.6634205720       33.5910675841        6.9045436648  W2        14305           0.0000000000
     41211     13737  TIP3      H2            -14.3616605720       34.3060675841        7.1979636648  W2        14305           0.0000000000
     41212     13738  TIP3      OH2            -9.3378105720       28.7119975841       13.3236636648  W2        14306           0.0000000000
     41213     13738  TIP3      H1             -9.7636805720       28.4841675841       14.1500636648  W2        14306           0.0000000000
     41214     13738  TIP3      H2             -8.7572305720       27.9731775841       13.1411936648  W2        14306           0.0000000000
     41215     13739  TIP3      OH2            -7.1349205720       29.6410475841        2.3975636648  W2        14307           0.0000000000
     41216     13739  TIP3      H1             -6.7816105720       29.2610275841        3.2019136648  W2        14307           0.0000000000
     41217     13739  TIP3      H2             -8.0835705720       29.5475275841        2.4844936648  W2        14307           0.0000000000
     41218     13740  TIP3      OH2            -6.6793905720       33.2639475841       15.7931436648  W2        14308           0.0000000000
     41219     13740  TIP3      H1             -7.2810705720       32.7082375841       15.2977736648  W2        14308           0.0000000000
     41220     13740  TIP3      H2             -6.3980205720       33.9309275841       15.1668836648  W2        14308           0.0000000000
     41221     13741  TIP3      OH2            -2.6314805720       34.1202975841        2.5985836648  W2        14309           0.0000000000
     41222     13741  TIP3      H1             -1.8876905720       34.7063475841        2.4587436648  W2        14309           0.0000000000
     41223     13741  TIP3      H2             -3.3256705720       34.6888775841        2.9318236648  W2        14309           0.0000000000
     41224     13742  TIP3      OH2           -18.5568005720       20.4967175841       15.2004036648  W2        14310           0.0000000000
     41225     13742  TIP3      H1            -19.4495705720       20.8352575841       15.1328036648  W2        14310           0.0000000000
     41226     13742  TIP3      H2            -18.6555205720       19.6413275841       15.6184836648  W2        14310           0.0000000000
     41227     13743  TIP3      OH2            -6.2689905720       28.3132475841        4.6243536648  W2        14311           0.0000000000
     41228     13743  TIP3      H1             -6.5462305720       27.5851775841        5.1804636648  W2        14311           0.0000000000
     41229     13743  TIP3      H2             -5.3416905720       28.4324475841        4.8296136648  W2        14311           0.0000000000
     41230     13744  TIP3      OH2           -18.9056005720       32.3011575841       13.6353436648  W2        14312           0.0000000000
     41231     13744  TIP3      H1            -18.6885705720       31.3693975841       13.6043136648  W2        14312           0.0000000000
     41232     13744  TIP3      H2            -18.6592505720       32.5756575841       14.5186236648  W2        14312           0.0000000000
     41233     13745  TIP3      OH2           -13.0441405720       30.7526575841        0.8445636648  W2        14313           0.0000000000
     41234     13745  TIP3      H1            -12.8051605720       30.0044675841        0.2974536648  W2        14313           0.0000000000
     41235     13745  TIP3      H2            -13.3130105720       30.3648275841        1.6773436648  W2        14313           0.0000000000
     41236     13746  TIP3      OH2           -14.1070805720       30.3230375841        3.3008236648  W2        14314           0.0000000000
     41237     13746  TIP3      H1            -13.9602805720       29.8030175841        4.0909136648  W2        14314           0.0000000000
     41238     13746  TIP3      H2            -14.1099105720       31.2297975841        3.6074136648  W2        14314           0.0000000000
     41239     13747  TIP3      OH2           -17.6539705720       27.5753675841        3.8113636648  W2        14315           0.0000000000
     41240     13747  TIP3      H1            -18.3400405720       27.9276175841        4.3783336648  W2        14315           0.0000000000
     41241     13747  TIP3      H2            -17.1311805720       28.3383275841        3.5647936648  W2        14315           0.0000000000
     41242     13748  TIP3      OH2            -9.8224605720       20.2377475841       14.0902636648  W2        14316           0.0000000000
     41243     13748  TIP3      H1             -9.1236705720       20.3116175841       14.7402336648  W2        14316           0.0000000000
     41244     13748  TIP3      H2            -10.2033205720       19.3732475841       14.2445536648  W2        14316           0.0000000000
     41245     13749  TIP3      OH2            -9.0379705720       19.8899175841        5.1874936648  W2        14317           0.0000000000
     41246     13749  TIP3      H1             -8.8181405720       20.3614575841        4.3840336648  W2        14317           0.0000000000
     41247     13749  TIP3      H2             -8.4795705720       20.2841775841        5.8575536648  W2        14317           0.0000000000
     41248     13750  TIP3      OH2           -11.3693605720       32.0203975841        4.0502436648  W2        14318           0.0000000000
     41249     13750  TIP3      H1            -12.1857505720       32.5173675841        4.1026736648  W2        14318           0.0000000000
     41250     13750  TIP3      H2            -10.8397305720       32.4957475841        3.4101236648  W2        14318           0.0000000000
     41251     13751  TIP3      OH2           -11.8379805720       21.6177975841        6.0223336648  W2        14319           0.0000000000
     41252     13751  TIP3      H1            -11.0257205720       22.1221175841        6.0685036648  W2        14319           0.0000000000
     41253     13751  TIP3      H2            -12.0826805720       21.4727675841        6.9362936648  W2        14319           0.0000000000
     41254     13752  TIP3      OH2           -11.3023405720       22.6040675841       15.2069936648  W2        14320           0.0000000000
     41255     13752  TIP3      H1            -11.1833105720       23.1776075841       15.9640336648  W2        14320           0.0000000000
     41256     13752  TIP3      H2            -10.6468805720       21.9160075841       15.3217736648  W2        14320           0.0000000000
     41257     13753  TIP3      OH2           -10.9543105720       18.6990975841        6.9604436648  W2        14321           0.0000000000
     41258     13753  TIP3      H1            -11.3009605720       19.3161575841        7.6048736648  W2        14321           0.0000000000
     41259     13753  TIP3      H2            -10.2956205720       19.1996675841        6.4789936648  W2        14321           0.0000000000
     41260     13754  TIP3      OH2           -14.0310505720       33.0641175841        4.0319336648  W2        14322           0.0000000000
     41261     13754  TIP3      H1            -13.8701805720       33.8638675841        3.5311936648  W2        14322           0.0000000000
     41262     13754  TIP3      H2            -14.2282705720       33.3707175841        4.9169936648  W2        14322           0.0000000000
     41263     13755  TIP3      OH2           -15.2966105720       19.7620375841        3.6476936648  W2        14323           0.0000000000
     41264     13755  TIP3      H1            -15.3801305720       20.6503475841        3.9943336648  W2        14323           0.0000000000
     41265     13755  TIP3      H2            -14.4065805720       19.4967075841        3.8793736648  W2        14323           0.0000000000
     41266     13756  TIP3      OH2            -5.0977605720       20.5110975841       16.0419636648  W2        14324           0.0000000000
     41267     13756  TIP3      H1             -6.0141805720       20.7732675841       15.9543336648  W2        14324           0.0000000000
     41268     13756  TIP3      H2             -4.7622605720       20.5079975841       15.1454936648  W2        14324           0.0000000000
     41269     13757  TIP3      OH2            -6.4956605720       24.2611975841       10.1376936648  W2        14325           0.0000000000
     41270     13757  TIP3      H1             -7.2932205720       23.8462175841        9.8091936648  W2        14325           0.0000000000
     41271     13757  TIP3      H2             -6.0505505720       23.5705675841       10.6287436648  W2        14325           0.0000000000
     41272     13758  TIP3      OH2           -17.0380805720       30.1892575841        2.7081436648  W2        14326           0.0000000000
     41273     13758  TIP3      H1            -16.4459305720       30.8887375841        2.9843836648  W2        14326           0.0000000000
     41274     13758  TIP3      H2            -16.5787805720       29.7562075841        1.9886036648  W2        14326           0.0000000000
     41275     13759  TIP3      OH2           -18.7221605720       22.8535575841        1.8240836648  W2        14327           0.0000000000
     41276     13759  TIP3      H1            -18.7669005720       23.7928675841        2.0027836648  W2        14327           0.0000000000
     41277     13759  TIP3      H2            -19.6098405720       22.6180475841        1.5542936648  W2        14327           0.0000000000
     41278     13760  TIP3      OH2            -5.4092005720       33.5174475841       11.7600436648  W2        14328           0.0000000000
     41279     13760  TIP3      H1             -5.5647705720       34.1958875841       11.1029736648  W2        14328           0.0000000000
     41280     13760  TIP3      H2             -4.4765605720       33.5893775841       11.9631036648  W2        14328           0.0000000000
     41281     13761  TIP3      OH2           -17.9139605720       17.6352175841       10.4971836648  W2        14329           0.0000000000
     41282     13761  TIP3      H1            -18.1429805720       17.6944675841        9.5696836648  W2        14329           0.0000000000
     41283     13761  TIP3      H2            -18.3566205720       16.8437675841       10.8035936648  W2        14329           0.0000000000
     41284     13762  TIP3      OH2           -18.9836305720       31.5759275841        6.6577636648  W2        14330           0.0000000000
     41285     13762  TIP3      H1            -19.8157705720       32.0481975841        6.6849036648  W2        14330           0.0000000000
     41286     13762  TIP3      H2            -18.4378005720       32.0856875841        6.0590736648  W2        14330           0.0000000000
     41287     13763  TIP3      OH2           -11.0059605720       32.6157975841        0.9831636648  W2        14333           0.0000000000
     41288     13763  TIP3      H1            -11.6498605720       31.9846575841        1.3045336648  W2        14333           0.0000000000
     41289     13763  TIP3      H2            -10.2441305720       32.0845975841        0.7515136648  W2        14333           0.0000000000
     41290     13764  TIP3      OH2            -6.4016705720       32.4327875841        1.2169636648  W2        14335           0.0000000000
     41291     13764  TIP3      H1             -6.1186305720       31.6383075841        1.6696536648  W2        14335           0.0000000000
     41292     13764  TIP3      H2             -5.6618805720       32.6658875841        0.6560736648  W2        14335           0.0000000000
     41293     13765  TIP3      OH2           -15.4469405720       28.3422775841        1.0744536648  W2        14337           0.0000000000
     41294     13765  TIP3      H1            -15.3825305720       27.5482375841        1.6050936648  W2        14337           0.0000000000
     41295     13765  TIP3      H2            -14.7940205720       28.2235575841        0.3846536648  W2        14337           0.0000000000
     41296     13766  TIP3      OH2           -10.0946005720       29.3894475841        0.8102536648  W2        14339           0.0000000000
     41297     13766  TIP3      H1            -10.3631905720       29.5696575841        1.7111436648  W2        14339           0.0000000000
     41298     13766  TIP3      H2            -10.3010405720       28.4640675841        0.6788336648  W2        14339           0.0000000000
     41299     13767  TIP3      OH2            -7.3981805720       27.8842475841       15.7578636648  W2        14340           0.0000000000
     41300     13767  TIP3      H1             -6.6527005720       28.4726175841       15.6382636648  W2        14340           0.0000000000
     41301     13767  TIP3      H2             -8.1555005720       28.4662175841       15.8211736648  W2        14340           0.0000000000
     41302     13768  TIP3      OH2           -14.2975605720       26.3148975841        3.3802536648  W2        14342           0.0000000000
     41303     13768  TIP3      H1            -14.7573605720       25.8307275841        4.0661036648  W2        14342           0.0000000000
     41304     13768  TIP3      H2            -14.0426905720       25.6464375841        2.7443036648  W2        14342           0.0000000000
     41305     13769  TIP3      OH2           -15.0086305720       24.2076075841       15.7362136648  W2        14343           0.0000000000
     41306     13769  TIP3      H1            -15.6270205720       24.8822675841       16.0166836648  W2        14343           0.0000000000
     41307     13769  TIP3      H2            -14.6645105720       24.5289975841       14.9028336648  W2        14343           0.0000000000
     41308     13770  TIP3      OH2           -13.2265205720       24.5580775841        1.6425736648  W2        14344           0.0000000000
     41309     13770  TIP3      H1            -13.4070205720       24.4031975841        0.7154036648  W2        14344           0.0000000000
     41310     13770  TIP3      H2            -12.2764705720       24.6659475841        1.6873636648  W2        14344           0.0000000000
     41311     13771  TIP3      OH2            -3.8366905720       26.9124975841        1.0883836648  W2        14346           0.0000000000
     41312     13771  TIP3      H1             -4.1102105720       26.4880475841        0.2752136648  W2        14346           0.0000000000
     41313     13771  TIP3      H2             -3.7972805720       27.8439475841        0.8714236648  W2        14346           0.0000000000
     41314     13772  TIP3      OH2           -14.6692605720       21.5626875841       16.8185236648  W2        14347           0.0000000000
     41315     13772  TIP3      H1            -14.5191705720       20.8338175841       16.2164936648  W2        14347           0.0000000000
     41316     13772  TIP3      H2            -14.6670205720       22.3398575841       16.2597436648  W2        14347           0.0000000000
     41317     13773  TIP3      OH2           -14.2566905720       19.9322675841       14.3112636648  W2        14348           0.0000000000
     41318     13773  TIP3      H1            -13.7209405720       20.3839375841       13.6591936648  W2        14348           0.0000000000
     41319     13773  TIP3      H2            -15.1087305720       19.8242475841       13.8886736648  W2        14348           0.0000000000
     41320     13774  TIP3      OH2           -12.6748505720       25.3718875841       14.5507836648  W2        14349           0.0000000000
     41321     13774  TIP3      H1            -11.9243705720       25.2156375841       13.9775636648  W2        14349           0.0000000000
     41322     13774  TIP3      H2            -13.0140205720       26.2235475841       14.2753336648  W2        14349           0.0000000000
     41323     13775  TIP3      OH2            -6.9425105720       25.9755875841       17.6565836648  W2        14351           0.0000000000
     41324     13775  TIP3      H1             -7.2240105720       26.6850475841       17.0789636648  W2        14351           0.0000000000
     41325     13775  TIP3      H2             -6.0000805720       25.9028875841       17.5057036648  W2        14351           0.0000000000
     41326     13776  TIP3      OH2           -13.4511405720       17.3888375841       14.7426236648  W2        14353           0.0000000000
     41327     13776  TIP3      H1            -13.5491805720       18.3351575841       14.6372436648  W2        14353           0.0000000000
     41328     13776  TIP3      H2            -14.1935205720       17.0162175841       14.2669736648  W2        14353           0.0000000000
     41329     13777  TIP3      OH2            -9.4714305720       20.8377275841       17.3818136648  W2        14355           0.0000000000
     41330     13777  TIP3      H1            -10.4188905720       20.8696975841       17.5141436648  W2        14355           0.0000000000
     41331     13777  TIP3      H2             -9.1587605720       20.2124375841       18.0356336648  W2        14355           0.0000000000
     41332     13778  TIP3      OH2           -13.2293305720       16.6825775841       17.4139036648  W2        14358           0.0000000000
     41333     13778  TIP3      H1            -12.5174905720       16.0427975841       17.3998136648  W2        14358           0.0000000000
     41334     13778  TIP3      H2            -13.3302905720       16.9494075841       16.5002136648  W2        14358           0.0000000000
     41335     13779  TIP3      OH2           -13.3293505720       35.2484475841        2.6439336648  W2        14360           0.0000000000
     41336     13779  TIP3      H1            -12.3962805720       35.4063175841        2.7877736648  W2        14360           0.0000000000
     41337     13779  TIP3      H2            -13.5934705720       35.9237475841        2.0190836648  W2        14360           0.0000000000
     41338     13780  TIP3      OH2           -19.7608605720       29.8848275841        2.1267436648  W2        14361           0.0000000000
     41339     13780  TIP3      H1            -18.8469405720       29.9637175841        2.4001336648  W2        14361           0.0000000000
     41340     13780  TIP3      H2            -19.7535505720       29.1977875841        1.4603036648  W2        14361           0.0000000000
     41341     13781  TIP3      OH2           -21.1118005720       35.2776775841        7.2041336648  W2        14362           0.0000000000
     41342     13781  TIP3      H1            -21.7590905720       34.8158475841        6.6712536648  W2        14362           0.0000000000
     41343     13781  TIP3      H2            -20.7573405720       34.6060075841        7.7867536648  W2        14362           0.0000000000
     41344     13782  TIP3      OH2           -20.2418805720       33.3583775841        9.0087536648  W2        14363           0.0000000000
     41345     13782  TIP3      H1            -20.5762005720       32.4781075841        9.1807736648  W2        14363           0.0000000000
     41346     13782  TIP3      H2            -20.0196405720       33.7038775841        9.8733136648  W2        14363           0.0000000000
     41347     13783  TIP3      OH2            -2.6934005720       34.1680175841       11.9892336648  W2        14364           0.0000000000
     41348     13783  TIP3      H1             -2.7147305720       34.3528575841       12.9281736648  W2        14364           0.0000000000
     41349     13783  TIP3      H2             -2.0027805720       34.7364175841       11.6483736648  W2        14364           0.0000000000
     41350     13784  TIP3      OH2            -3.1301105720       33.7351275841       14.9111436648  W2        14365           0.0000000000
     41351     13784  TIP3      H1             -3.6172405720       32.9995375841       14.5398836648  W2        14365           0.0000000000
     41352     13784  TIP3      H2             -2.5808405720       33.3415175841       15.5890836648  W2        14365           0.0000000000
     41353     13785  TIP3      OH2            -3.3784105720       27.7813075841        5.0634236648  W2        14367           0.0000000000
     41354     13785  TIP3      H1             -2.5282705720       28.2023975841        5.1905836648  W2        14367           0.0000000000
     41355     13785  TIP3      H2             -3.3729005720       27.0413175841        5.6705636648  W2        14367           0.0000000000
     41356     13786  TIP3      OH2            -2.9838505720       25.8350475841        6.8869936648  W2        14368           0.0000000000
     41357     13786  TIP3      H1             -3.7103905720       25.3553075841        7.2847536648  W2        14368           0.0000000000
     41358     13786  TIP3      H2             -2.4025205720       26.0405175841        7.6191536648  W2        14368           0.0000000000
     41359     13787  TIP3      OH2            -3.2247305720       28.6197975841       11.8347536648  W2        14369           0.0000000000
     41360     13787  TIP3      H1             -2.3913105720       28.2417975841       11.5541136648  W2        14369           0.0000000000
     41361     13787  TIP3      H2             -3.1127005720       29.5629175841       11.7156636648  W2        14369           0.0000000000
     41362     13788  TIP3      OH2            -4.7385005720       31.4975475841       14.1415936648  W2        14370           0.0000000000
     41363     13788  TIP3      H1             -5.3859705720       31.8226975841       14.7671136648  W2        14370           0.0000000000
     41364     13788  TIP3      H2             -5.2561005720       31.0573175841       13.4674236648  W2        14370           0.0000000000
     41365     13789  TIP3      OH2            -2.7155405720       25.7358975841        3.2781236648  W2        14371           0.0000000000
     41366     13789  TIP3      H1             -3.2374305720       26.0923075841        2.5592136648  W2        14371           0.0000000000
     41367     13789  TIP3      H2             -2.7486205720       26.4106775841        3.9562136648  W2        14371           0.0000000000
     41368     13790  TIP3      OH2            -4.3666405720       22.9754575841        1.8288336648  W2        14372           0.0000000000
     41369     13790  TIP3      H1             -4.2702005720       23.6421575841        1.1488036648  W2        14372           0.0000000000
     41370     13790  TIP3      H2             -4.5066805720       22.1600875841        1.3473836648  W2        14372           0.0000000000
     41371     13791  TIP3      OH2            -5.1971705720       24.3556975841        7.4498636648  W2        14373           0.0000000000
     41372     13791  TIP3      H1             -5.3472905720       23.4105575841        7.4296436648  W2        14373           0.0000000000
     41373     13791  TIP3      H2             -5.5507205720       24.6368375841        8.2937736648  W2        14373           0.0000000000
     41374     13792  TIP3      OH2           -20.1619305720       26.4339175841       11.4602436648  W2        14374           0.0000000000
     41375     13792  TIP3      H1            -19.9776405720       26.3520875841       10.5245336648  W2        14374           0.0000000000
     41376     13792  TIP3      H2            -19.3126405720       26.3096175841       11.8838836648  W2        14374           0.0000000000
     41377     13793  TIP3      OH2            -4.3408805720       26.3260275841       17.0886936648  W2        14375           0.0000000000
     41378     13793  TIP3      H1             -3.7581505720       25.5912575841       17.2804136648  W2        14375           0.0000000000
     41379     13793  TIP3      H2             -3.7769505720       27.0980575841       17.1352736648  W2        14375           0.0000000000
     41380     13794  TIP3      OH2            -2.8441705720       24.2286075841       17.7732336648  W2        14376           0.0000000000
     41381     13794  TIP3      H1             -3.7075005720       23.8498175841       17.6077036648  W2        14376           0.0000000000
     41382     13794  TIP3      H2             -2.2398005720       23.4900875841       17.6988136648  W2        14376           0.0000000000
     41383     13795  TIP3      OH2            -5.1192605720       20.3834375841        0.9463836648  W2        14377           0.0000000000
     41384     13795  TIP3      H1             -4.5086805720       20.0121175841        1.5832036648  W2        14377           0.0000000000
     41385     13795  TIP3      H2             -5.9561105720       19.9621275841        1.1423836648  W2        14377           0.0000000000
     41386     13796  TIP3      OH2            -5.4866905720       21.9382775841        5.9123736648  W2        14378           0.0000000000
     41387     13796  TIP3      H1             -5.2069805720       21.0313175841        6.0365436648  W2        14378           0.0000000000
     41388     13796  TIP3      H2             -4.7275205720       22.3724275841        5.5232936648  W2        14378           0.0000000000
     41389     13797  TIP3      OH2            -4.8748605720       22.5200175841       11.3482636648  W2        14379           0.0000000000
     41390     13797  TIP3      H1             -3.9420605720       22.7320075841       11.3138636648  W2        14379           0.0000000000
     41391     13797  TIP3      H2             -5.1101105720       22.6212275841       12.2705636648  W2        14379           0.0000000000
     41392     13798  TIP3      OH2            -4.8456705720       23.2565475841       14.1242036648  W2        14380           0.0000000000
     41393     13798  TIP3      H1             -5.6885405720       23.5245875841       14.4901836648  W2        14380           0.0000000000
     41394     13798  TIP3      H2             -4.4032405720       24.0787375841       13.9133136648  W2        14380           0.0000000000
     41395     13799  TIP3      OH2           -20.5644505720       21.7044175841       17.6011236648  W2        14381           0.0000000000
     41396     13799  TIP3      H1            -19.6449605720       21.5822475841       17.8374336648  W2        14381           0.0000000000
     41397     13799  TIP3      H2            -21.0140005720       20.9543875841       17.9904736648  W2        14381           0.0000000000
     41398     13800  TIP3      OH2            -4.8732105720       19.2012075841        5.9605736648  W2        14383           0.0000000000
     41399     13800  TIP3      H1             -4.6907105720       18.7523575841        6.7860736648  W2        14383           0.0000000000
     41400     13800  TIP3      H2             -5.4729205720       18.6166475841        5.4970336648  W2        14383           0.0000000000
     41401     13801  TIP3      OH2           -19.3432005720       20.0165775841       10.4924136648  W2        14384           0.0000000000
     41402     13801  TIP3      H1            -18.8980405720       19.2248275841       10.7943836648  W2        14384           0.0000000000
     41403     13801  TIP3      H2            -18.8769005720       20.7330975841       10.9229736648  W2        14384           0.0000000000
     41404     13802  TIP3      OH2           -21.0391705720       23.0158775841       11.5614336648  W2        14385           0.0000000000
     41405     13802  TIP3      H1            -20.5471905720       22.7949275841       10.7706336648  W2        14385           0.0000000000
     41406     13802  TIP3      H2            -20.6770805720       23.8562175841       11.8423836648  W2        14385           0.0000000000
     41407     13803  TIP3      OH2            -3.0065905720       19.2690175841        2.4886036648  W2        14387           0.0000000000
     41408     13803  TIP3      H1             -2.5943305720       18.5475875841        2.0134036648  W2        14387           0.0000000000
     41409     13803  TIP3      H2             -2.3249405720       19.9384775841        2.5470336648  W2        14387           0.0000000000
     41410     13804  TIP3      OH2           -20.7255205720       19.2737875841        5.6156736648  W2        14388           0.0000000000
     41411     13804  TIP3      H1            -21.6506805720       19.4824475841        5.4862236648  W2        14388           0.0000000000
     41412     13804  TIP3      H2            -20.2715305720       19.7578675841        4.9259036648  W2        14388           0.0000000000
     41413     13805  TIP3      OH2            -5.9548005720       34.2579575841        7.5614136648  W2        14389           0.0000000000
     41414     13805  TIP3      H1             -5.3025105720       33.9101675841        6.9533236648  W2        14389           0.0000000000
     41415     13805  TIP3      H2             -5.4444205720       34.7462775841        8.2073836648  W2        14389           0.0000000000
     41416     13806  TIP3      OH2           -20.7619805720       18.0116875841       13.9599236648  W2        14390           0.0000000000
     41417     13806  TIP3      H1            -21.4269305720       17.7657175841       14.6030136648  W2        14390           0.0000000000
     41418     13806  TIP3      H2            -21.2048505720       18.6337275841       13.3827236648  W2        14390           0.0000000000
     41419     13807  TIP3      OH2           -15.6157605720       32.1612175841       14.3629036648  W2        14392           0.0000000000
     41420     13807  TIP3      H1            -16.0406505720       32.9710675841       14.0803636648  W2        14392           0.0000000000
     41421     13807  TIP3      H2            -14.7114805720       32.2466275841       14.0608836648  W2        14392           0.0000000000
     41422     13808  TIP3      OH2           -11.3046205720       33.5602175841       17.3222736648  W2        14393           0.0000000000
     41423     13808  TIP3      H1            -11.1198705720       33.2268275841       18.2003036648  W2        14393           0.0000000000
     41424     13808  TIP3      H2            -10.4581705720       33.8700775841       17.0001936648  W2        14393           0.0000000000
     41425     13809  TIP3      OH2            -8.9595805720       34.8461075841       16.5664136648  W2        14394           0.0000000000
     41426     13809  TIP3      H1             -8.2826905720       34.2133375841       16.3263336648  W2        14394           0.0000000000
     41427     13809  TIP3      H2             -8.6377005720       35.2471575841       17.3737436648  W2        14394           0.0000000000
     41428     13810  TIP3      OH2            -4.0422005720       17.4356575841       15.6459136648  W2        14395           0.0000000000
     41429     13810  TIP3      H1             -4.8548505720       17.7606875841       15.2583836648  W2        14395           0.0000000000
     41430     13810  TIP3      H2             -3.8093505720       16.6755075841       15.1128236648  W2        14395           0.0000000000
     41431     13811  TIP3      OH2           -18.2140905720       35.4176075841       14.4104336648  W2        14396           0.0000000000
     41432     13811  TIP3      H1            -18.9344505720       35.8577075841       13.9592036648  W2        14396           0.0000000000
     41433     13811  TIP3      H2            -18.5796905720       35.1670775841       15.2588336648  W2        14396           0.0000000000
     41434     13812  TIP3      OH2           -15.7468305720       35.0179975841       13.4401536648  W2        14397           0.0000000000
     41435     13812  TIP3      H1            -16.6116105720       35.0898475841       13.8441636648  W2        14397           0.0000000000
     41436     13812  TIP3      H2            -15.8019305720       35.5647275841       12.6564036648  W2        14397           0.0000000000
     41437     13813  TIP3      OH2           -11.0362705720       34.9058875841       12.6157536648  W2        14398           0.0000000000
     41438     13813  TIP3      H1            -11.4928705720       35.4348575841       11.9615936648  W2        14398           0.0000000000
     41439     13813  TIP3      H2            -10.8734705720       35.5090275841       13.3409836648  W2        14398           0.0000000000
     41440     13814  TIP3      OH2            -8.7086405720       33.7838475841       13.5607836648  W2        14399           0.0000000000
     41441     13814  TIP3      H1             -9.6132705720       33.9488675841       13.2949936648  W2        14399           0.0000000000
     41442     13814  TIP3      H2             -8.2797805720       34.6370675841       13.4951236648  W2        14399           0.0000000000
     41443     13815  TIP3      OH2            -6.1044505720       35.3537575841       13.8555636648  W2        14400           0.0000000000
     41444     13815  TIP3      H1             -6.2862505720       36.2696475841       13.6450536648  W2        14400           0.0000000000
     41445     13815  TIP3      H2             -5.9276705720       34.9434675841       13.0090236648  W2        14400           0.0000000000
     41446     13816  TIP3      OH2           -18.7992805720       34.0408575841       11.3206136648  W2        14401           0.0000000000
     41447     13816  TIP3      H1            -18.8176805720       33.6153675841       12.1778436648  W2        14401           0.0000000000
     41448     13816  TIP3      H2            -17.9944905720       33.7223575841       10.9118336648  W2        14401           0.0000000000
     41449     13817  TIP3      OH2           -16.6579705720       32.7507275841        9.9756036648  W2        14402           0.0000000000
     41450     13817  TIP3      H1            -16.8769005720       31.8344675841       10.1452036648  W2        14402           0.0000000000
     41451     13817  TIP3      H2            -15.8337505720       32.8907675841       10.4417436648  W2        14402           0.0000000000
     41452     13818  TIP3      OH2           -14.1207205720       33.2206575841       10.8244036648  W2        14403           0.0000000000
     41453     13818  TIP3      H1            -13.9081505720       32.3325575841       10.5374936648  W2        14403           0.0000000000
     41454     13818  TIP3      H2            -14.0562105720       33.1864275841       11.7788036648  W2        14403           0.0000000000
     41455     13819  TIP3      OH2           -10.6123505720       18.8847175841        9.9687336648  W2        14404           0.0000000000
     41456     13819  TIP3      H1            -11.2866705720       18.2552775841       10.2243136648  W2        14404           0.0000000000
     41457     13819  TIP3      H2            -10.0484305720       18.4006075841        9.3655236648  W2        14404           0.0000000000
     41458     13820  TIP3      OH2            -5.4696305720       16.9921175841       10.0814436648  W2        14405           0.0000000000
     41459     13820  TIP3      H1             -4.8658705720       17.5396575841        9.5795436648  W2        14405           0.0000000000
     41460     13820  TIP3      H2             -6.3394305720       17.3111575841        9.8408536648  W2        14405           0.0000000000
     41461     13821  TIP3      OH2            -3.7425905720       18.1309875841        8.4145336648  W2        14406           0.0000000000
     41462     13821  TIP3      H1             -3.1308405720       17.6165575841        7.8878936648  W2        14406           0.0000000000
     41463     13821  TIP3      H2             -3.3602505720       19.0081975841        8.4379736648  W2        14406           0.0000000000
     41464     13822  TIP3      OH2           -18.2856005720       17.5187475841        7.7907236648  W2        14407           0.0000000000
     41465     13822  TIP3      H1            -19.0626205720       17.2842375841        7.2833136648  W2        14407           0.0000000000
     41466     13822  TIP3      H2            -17.7552405720       16.7219575841        7.7995236648  W2        14407           0.0000000000
     41467     13823  TIP3      OH2           -19.4492605720       17.3165575841        3.5943336648  W2        14408           0.0000000000
     41468     13823  TIP3      H1            -19.0101905720       17.9276075841        3.0026836648  W2        14408           0.0000000000
     41469     13823  TIP3      H2            -20.0830205720       17.8549675841        4.0683336648  W2        14408           0.0000000000
     41470     13824  TIP3      OH2           -13.7063405720       17.4454575841        7.6040336648  W2        14409           0.0000000000
     41471     13824  TIP3      H1            -12.8320005720       17.8338875841        7.5744636648  W2        14409           0.0000000000
     41472     13824  TIP3      H2            -13.8422605720       17.2302375841        8.5267536648  W2        14409           0.0000000000
     41473     13825  TIP3      OH2            -8.1495005720       17.4754375841        9.2532036648  W2        14410           0.0000000000
     41474     13825  TIP3      H1             -8.0733405720       17.5705975841        8.3038036648  W2        14410           0.0000000000
     41475     13825  TIP3      H2             -8.4245805720       16.5677275841        9.3821136648  W2        14410           0.0000000000
     41476     13826  TIP3      OH2            -6.7962405720       17.5012175841        4.9457036648  W2        14411           0.0000000000
     41477     13826  TIP3      H1             -7.4991305720       18.1161375841        4.7358436648  W2        14411           0.0000000000
     41478     13826  TIP3      H2             -7.2411005720       16.6638875841        5.0767936648  W2        14411           0.0000000000
     41479     13827  TIP3      OH2           -19.5483105720       33.2647775841        4.4918436648  W2        14412           0.0000000000
     41480     13827  TIP3      H1            -20.2333205720       33.2266675841        3.8243536648  W2        14412           0.0000000000
     41481     13827  TIP3      H2            -19.5445905720       34.1775375841        4.7800536648  W2        14412           0.0000000000
     41482     13828  TIP3      OH2           -17.5883505720       19.2327075841        2.0367436648  W2        14413           0.0000000000
     41483     13828  TIP3      H1            -17.0970105720       18.6029475841        1.5092936648  W2        14413           0.0000000000
     41484     13828  TIP3      H2            -16.9647205720       19.5286475841        2.6998636648  W2        14413           0.0000000000
     41485     13829  TIP3      OH2           -12.5623405720       19.5258575841        4.4937936648  W2        14414           0.0000000000
     41486     13829  TIP3      H1            -12.3842105720       18.8791775841        5.1766536648  W2        14414           0.0000000000
     41487     13829  TIP3      H2            -12.6157205720       20.3596275841        4.9609036648  W2        14414           0.0000000000
     41488     13830  TIP3      OH2           -10.6839605720       34.4742675841        2.8894636648  W2        14415           0.0000000000
     41489     13830  TIP3      H1             -9.8179405720       34.8410075841        2.7112836648  W2        14415           0.0000000000
     41490     13830  TIP3      H2            -10.9306805720       34.0350675841        2.0755436648  W2        14415           0.0000000000
     41491     13831  TIP3      OH2            -3.9750005720       34.0372975841        5.5685736648  W2        14416           0.0000000000
     41492     13831  TIP3      H1             -4.1692905720       33.2895075841        5.0035336648  W2        14416           0.0000000000
     41493     13831  TIP3      H2             -4.0139905720       34.7953075841        4.9853636648  W2        14416           0.0000000000
     41494     13832  TIP3      OH2           -18.3278005720       18.0329375841       17.3083436648  W2        14417           0.0000000000
     41495     13832  TIP3      H1            -18.6939805720       17.2671975841       17.7508136648  W2        14417           0.0000000000
     41496     13832  TIP3      H2            -17.4149505720       18.0619575841       17.5948536648  W2        14417           0.0000000000
     41497     13833  TIP3      OH2           -17.7301905720       34.1848575841        1.5170536648  W2        14419           0.0000000000
     41498     13833  TIP3      H1            -17.9977305720       34.4711475841        2.3903636648  W2        14419           0.0000000000
     41499     13833  TIP3      H2            -16.9589305720       33.6387775841        1.6693036648  W2        14419           0.0000000000
     41500     13834  TIP3      OH2            -4.7573805720       32.7885375841       17.7187536648  W2        14421           0.0000000000
     41501     13834  TIP3      H1             -5.5391905720       32.6023375841       17.1988136648  W2        14421           0.0000000000
     41502     13834  TIP3      H2             -4.8293905720       33.7179675841       17.9360036648  W2        14421           0.0000000000
     41503     13835  TIP3      OH2             9.6486594280       26.6749775841        7.7494736648  W2        14422           0.0000000000
     41504     13835  TIP3      H1              9.7377694280       27.6187975841        7.6171836648  W2        14422           0.0000000000
     41505     13835  TIP3      H2              9.0104194280       26.3996175841        7.0914136648  W2        14422           0.0000000000
     41506     13836  TIP3      OH2             8.5817894280       25.9300475841       11.1682936648  W2        14423           0.0000000000
     41507     13836  TIP3      H1              8.5435394280       25.2836775841       11.8732536648  W2        14423           0.0000000000
     41508     13836  TIP3      H2              8.2594394280       25.4634875841       10.3971636648  W2        14423           0.0000000000
     41509     13837  TIP3      OH2             0.9502894280       25.5442575841       12.7612836648  W2        14424           0.0000000000
     41510     13837  TIP3      H1              0.9914994280       24.9185875841       13.4845236648  W2        14424           0.0000000000
     41511     13837  TIP3      H2              1.6530594280       26.1681175841       12.9433236648  W2        14424           0.0000000000
     41512     13838  TIP3      OH2            12.2878094280       28.8690875841        9.4698036648  W2        14425           0.0000000000
     41513     13838  TIP3      H1             11.8470794280       28.1486875841        9.9203636648  W2        14425           0.0000000000
     41514     13838  TIP3      H2             12.2747794280       29.5898075841       10.0995736648  W2        14425           0.0000000000
     41515     13839  TIP3      OH2             1.8735994280       29.9941475841       11.2961936648  W2        14426           0.0000000000
     41516     13839  TIP3      H1              1.5041194280       29.1921975841       10.9266236648  W2        14426           0.0000000000
     41517     13839  TIP3      H2              2.8147094280       29.8256375841       11.3425336648  W2        14426           0.0000000000
     41518     13840  TIP3      OH2            -1.5163505720       23.6544075841        6.6890736648  W2        14427           0.0000000000
     41519     13840  TIP3      H1             -1.9640105720       24.5002775841        6.6707236648  W2        14427           0.0000000000
     41520     13840  TIP3      H2             -2.0772305720       23.0748275841        6.1735836648  W2        14427           0.0000000000
     41521     13841  TIP3      OH2            -0.8057405720       25.8163675841        8.8148736648  W2        14428           0.0000000000
     41522     13841  TIP3      H1             -0.5923905720       25.0465275841        9.3421736648  W2        14428           0.0000000000
     41523     13841  TIP3      H2             -0.0679805720       25.9060375841        8.2116336648  W2        14428           0.0000000000
     41524     13842  TIP3      OH2             9.3993594280       33.9732575841        9.6818436648  W2        14429           0.0000000000
     41525     13842  TIP3      H1             10.0189994280       33.2967275841        9.4087636648  W2        14429           0.0000000000
     41526     13842  TIP3      H2              9.1910994280       33.7553375841       10.5903336648  W2        14429           0.0000000000
     41527     13843  TIP3      OH2             6.9712294280       28.3621875841       11.5743936648  W2        14430           0.0000000000
     41528     13843  TIP3      H1              7.2750194280       27.6763275841       10.9798036648  W2        14430           0.0000000000
     41529     13843  TIP3      H2              7.6926294280       28.4810575841       12.1921936648  W2        14430           0.0000000000
     41530     13844  TIP3      OH2            15.6342094280       19.9637175841       12.4350136648  W2        14431           0.0000000000
     41531     13844  TIP3      H1             15.6834294280       20.5738375841       13.1709236648  W2        14431           0.0000000000
     41532     13844  TIP3      H2             16.0597194280       20.4248075841       11.7121236648  W2        14431           0.0000000000
     41533     13845  TIP3      OH2            10.1119294280       22.7564275841       11.9018736648  W2        14432           0.0000000000
     41534     13845  TIP3      H1             10.2545194280       21.8101275841       11.9220336648  W2        14432           0.0000000000
     41535     13845  TIP3      H2             10.0058294280       22.9634075841       10.9733636648  W2        14432           0.0000000000
     41536     13846  TIP3      OH2             3.2667594280       20.8580675841        9.1743536648  W2        14433           0.0000000000
     41537     13846  TIP3      H1              3.3098694280       21.7179175841        8.7559836648  W2        14433           0.0000000000
     41538     13846  TIP3      H2              2.8091694280       20.3055375841        8.5406736648  W2        14433           0.0000000000
     41539     13847  TIP3      OH2            10.9890294280       20.9886275841        7.5751836648  W2        14434           0.0000000000
     41540     13847  TIP3      H1             11.6354594280       20.6599475841        8.1999436648  W2        14434           0.0000000000
     41541     13847  TIP3      H2             11.4989694280       21.5065275841        6.9523236648  W2        14434           0.0000000000
     41542     13848  TIP3      OH2            -0.1130905720       23.2546475841        9.9364936648  W2        14435           0.0000000000
     41543     13848  TIP3      H1              0.5405694280       22.7048175841       10.3685036648  W2        14435           0.0000000000
     41544     13848  TIP3      H2             -0.0891605720       22.9805475841        9.0196936648  W2        14435           0.0000000000
     41545     13849  TIP3      OH2             5.0433594280       24.8047775841        9.1516436648  W2        14436           0.0000000000
     41546     13849  TIP3      H1              5.6594594280       24.2783175841        9.6610436648  W2        14436           0.0000000000
     41547     13849  TIP3      H2              4.4572394280       24.1646475841        8.7480036648  W2        14436           0.0000000000
     41548     13850  TIP3      OH2            16.0256694280       21.4416375841       14.6709936648  W2        14437           0.0000000000
     41549     13850  TIP3      H1             15.3371294280       22.0997075841       14.5756536648  W2        14437           0.0000000000
     41550     13850  TIP3      H2             16.0411294280       21.2444275841       15.6075336648  W2        14437           0.0000000000
     41551     13851  TIP3      OH2             2.0769494280       19.7759075841       13.2484336648  W2        14438           0.0000000000
     41552     13851  TIP3      H1              1.8581194280       20.3059675841       12.4820336648  W2        14438           0.0000000000
     41553     13851  TIP3      H2              1.4090394280       20.0024575841       13.8955736648  W2        14438           0.0000000000
     41554     13852  TIP3      OH2             9.4459294280       29.2760175841        6.7923436648  W2        14439           0.0000000000
     41555     13852  TIP3      H1              9.1504394280       28.9532475841        5.9410336648  W2        14439           0.0000000000
     41556     13852  TIP3      H2              9.1217094280       30.1756875841        6.8336036648  W2        14439           0.0000000000
     41557     13853  TIP3      OH2             4.6460894280       27.4514775841       13.5358036648  W2        14440           0.0000000000
     41558     13853  TIP3      H1              3.9059994280       28.0496275841       13.6393236648  W2        14440           0.0000000000
     41559     13853  TIP3      H2              5.3600394280       28.0054375841       13.2201636648  W2        14440           0.0000000000
     41560     13854  TIP3      OH2            12.7528694280       20.2795575841        9.5557736648  W2        14441           0.0000000000
     41561     13854  TIP3      H1             12.5376694280       19.5138975841       10.0883736648  W2        14441           0.0000000000
     41562     13854  TIP3      H2             13.4086094280       20.7520175841       10.0686236648  W2        14441           0.0000000000
     41563     13855  TIP3      OH2             1.6706794280       21.6680875841       11.2006536648  W2        14442           0.0000000000
     41564     13855  TIP3      H1              2.2843094280       22.3008475841       11.5738936648  W2        14442           0.0000000000
     41565     13855  TIP3      H2              2.1827494280       21.1955875841       10.5443436648  W2        14442           0.0000000000
     41566     13856  TIP3      OH2             3.0535194280       29.4157775841       14.3229536648  W2        14443           0.0000000000
     41567     13856  TIP3      H1              3.0482794280       30.2951275841       13.9448836648  W2        14443           0.0000000000
     41568     13856  TIP3      H2              2.1999294280       29.3321875841       14.7479436648  W2        14443           0.0000000000
     41569     13857  TIP3      OH2            -0.8253905720       29.0865675841        5.1048836648  W2        14444           0.0000000000
     41570     13857  TIP3      H1             -1.0973005720       29.3156675841        4.2161736648  W2        14444           0.0000000000
     41571     13857  TIP3      H2             -0.7798205720       29.9244475841        5.5654136648  W2        14444           0.0000000000
     41572     13858  TIP3      OH2            12.7995794280       30.7081575841       11.8177336648  W2        14445           0.0000000000
     41573     13858  TIP3      H1             11.8579494280       30.7665475841       11.9794236648  W2        14445           0.0000000000
     41574     13858  TIP3      H2             13.0761894280       31.6142075841       11.6807036648  W2        14445           0.0000000000
     41575     13859  TIP3      OH2            13.1002794280       18.9946875841       13.2351236648  W2        14446           0.0000000000
     41576     13859  TIP3      H1             12.3641994280       19.6053975841       13.1972536648  W2        14446           0.0000000000
     41577     13859  TIP3      H2             13.7836794280       19.4095875841       12.7087636648  W2        14446           0.0000000000
     41578     13860  TIP3      OH2             6.1034194280       17.0814175841       10.7009236648  W2        14447           0.0000000000
     41579     13860  TIP3      H1              5.9858394280       16.1330175841       10.6467536648  W2        14447           0.0000000000
     41580     13860  TIP3      H2              5.2484294280       17.4140275841       10.9740336648  W2        14447           0.0000000000
     41581     13861  TIP3      OH2            11.0516994280       32.4895075841        8.4428936648  W2        14448           0.0000000000
     41582     13861  TIP3      H1             11.4769294280       31.7822975841        7.9578536648  W2        14448           0.0000000000
     41583     13861  TIP3      H2             11.3686994280       33.2907775841        8.0261136648  W2        14448           0.0000000000
     41584     13862  TIP3      OH2            12.2113494280       30.3903575841        6.9515536648  W2        14449           0.0000000000
     41585     13862  TIP3      H1             11.9538294280       29.7003675841        6.3401436648  W2        14449           0.0000000000
     41586     13862  TIP3      H2             12.2824294280       29.9474775841        7.7971436648  W2        14449           0.0000000000
     41587     13863  TIP3      OH2            13.8973694280       28.9570275841       15.4289036648  W2        14450           0.0000000000
     41588     13863  TIP3      H1             14.0369994280       28.3652775841       14.6896036648  W2        14450           0.0000000000
     41589     13863  TIP3      H2             14.0646494280       29.8296175841       15.0727836648  W2        14450           0.0000000000
     41590     13864  TIP3      OH2             8.3699094280       25.9189775841        5.2015036648  W2        14451           0.0000000000
     41591     13864  TIP3      H1              7.6584594280       26.4539475841        4.8495536648  W2        14451           0.0000000000
     41592     13864  TIP3      H2              9.0608694280       25.9741875841        4.5413936648  W2        14451           0.0000000000
     41593     13865  TIP3      OH2             8.4238294280       24.3764075841        2.2400036648  W2        14452           0.0000000000
     41594     13865  TIP3      H1              9.1248194280       24.3990975841        2.8914036648  W2        14452           0.0000000000
     41595     13865  TIP3      H2              8.7261194280       23.7483775841        1.5839336648  W2        14452           0.0000000000
     41596     13866  TIP3      OH2            15.7392994280       25.2968275841       13.4949436648  W2        14453           0.0000000000
     41597     13866  TIP3      H1             15.0867094280       25.9913875841       13.5840336648  W2        14453           0.0000000000
     41598     13866  TIP3      H2             16.2043294280       25.5069175841       12.6851036648  W2        14453           0.0000000000
     41599     13867  TIP3      OH2            11.7756794280       26.1283075841        6.1530936648  W2        14454           0.0000000000
     41600     13867  TIP3      H1             11.0437794280       26.3566775841        6.7261536648  W2        14454           0.0000000000
     41601     13867  TIP3      H2             12.2228994280       25.4145775841        6.6078436648  W2        14454           0.0000000000
     41602     13868  TIP3      OH2            11.6730294280       24.3025675841       15.2207936648  W2        14455           0.0000000000
     41603     13868  TIP3      H1             11.7529394280       25.0660075841       15.7926436648  W2        14455           0.0000000000
     41604     13868  TIP3      H2             11.0717994280       24.5818075841       14.5303036648  W2        14455           0.0000000000
     41605     13869  TIP3      OH2             3.4210494280       26.7589275841        8.0355936648  W2        14456           0.0000000000
     41606     13869  TIP3      H1              3.0905694280       26.3882675841        7.2172936648  W2        14456           0.0000000000
     41607     13869  TIP3      H2              4.0094594280       26.0883275841        8.3824236648  W2        14456           0.0000000000
     41608     13870  TIP3      OH2             4.7877994280       30.1869875841       10.7168136648  W2        14457           0.0000000000
     41609     13870  TIP3      H1              4.6929294280       29.6082975841        9.9602736648  W2        14457           0.0000000000
     41610     13870  TIP3      H2              5.5171594280       29.8155575841       11.2130936648  W2        14457           0.0000000000
     41611     13871  TIP3      OH2             3.7875994280       25.5274875841       11.6690936648  W2        14458           0.0000000000
     41612     13871  TIP3      H1              4.3528494280       25.6489075841       10.9062136648  W2        14458           0.0000000000
     41613     13871  TIP3      H2              4.1064894280       26.1649875841       12.3079436648  W2        14458           0.0000000000
     41614     13872  TIP3      OH2            10.0968194280       31.0306775841       12.4031436648  W2        14459           0.0000000000
     41615     13872  TIP3      H1              9.8564794280       31.6929875841       13.0510636648  W2        14459           0.0000000000
     41616     13872  TIP3      H2              9.8986394280       30.1961975841       12.8281036648  W2        14459           0.0000000000
     41617     13873  TIP3      OH2             4.6676694280       29.9267575841       16.3862836648  W2        14460           0.0000000000
     41618     13873  TIP3      H1              4.3564194280       30.7090775841       16.8416036648  W2        14460           0.0000000000
     41619     13873  TIP3      H2              4.0176894280       29.7736675841       15.7004836648  W2        14460           0.0000000000
     41620     13874  TIP3      OH2            10.6466294280       25.2905975841        3.8382136648  W2        14461           0.0000000000
     41621     13874  TIP3      H1             11.2261794280       25.4406275841        4.5851036648  W2        14461           0.0000000000
     41622     13874  TIP3      H2             11.0606294280       25.7613375841        3.1148536648  W2        14461           0.0000000000
     41623     13875  TIP3      OH2             1.5876594280       26.1248675841       15.6148536648  W2        14462           0.0000000000
     41624     13875  TIP3      H1              1.6579794280       26.7755475841       16.3133536648  W2        14462           0.0000000000
     41625     13875  TIP3      H2              0.6968794280       26.2276175841       15.2799436648  W2        14462           0.0000000000
     41626     13876  TIP3      OH2             8.3731194280       32.0274475841        7.2735236648  W2        14463           0.0000000000
     41627     13876  TIP3      H1              8.8468794280       32.3230775841        8.0509436648  W2        14463           0.0000000000
     41628     13876  TIP3      H2              7.8100494280       32.7656075841        7.0404836648  W2        14463           0.0000000000
     41629     13877  TIP3      OH2             2.9072594280       31.9982575841       17.1496636648  W2        14464           0.0000000000
     41630     13877  TIP3      H1              2.9147894280       31.8622275841       16.2022136648  W2        14464           0.0000000000
     41631     13877  TIP3      H2              1.9912994280       31.8810675841       17.4016636648  W2        14464           0.0000000000
     41632     13878  TIP3      OH2            14.3454694280       17.0406375841        3.6511836648  W2        14465           0.0000000000
     41633     13878  TIP3      H1             13.4455394280       17.1795375841        3.9462436648  W2        14465           0.0000000000
     41634     13878  TIP3      H2             14.5973094280       17.8720975841        3.2493536648  W2        14465           0.0000000000
     41635     13879  TIP3      OH2             2.4113194280       25.8283575841        5.6248736648  W2        14466           0.0000000000
     41636     13879  TIP3      H1              2.1194494280       26.5965275841        5.1340036648  W2        14466           0.0000000000
     41637     13879  TIP3      H2              1.7368394280       25.1689775841        5.4620136648  W2        14466           0.0000000000
     41638     13880  TIP3      OH2            15.5346094280       31.4068775841        2.0275736648  W2        14467           0.0000000000
     41639     13880  TIP3      H1             15.6079594280       32.3458975841        2.1981036648  W2        14467           0.0000000000
     41640     13880  TIP3      H2             16.4401194280       31.1017375841        1.9713036648  W2        14467           0.0000000000
     41641     13881  TIP3      OH2            -1.4956705720       28.1912775841       14.4398536648  W2        14468           0.0000000000
     41642     13881  TIP3      H1             -1.9968305720       28.1632175841       13.6248236648  W2        14468           0.0000000000
     41643     13881  TIP3      H2             -1.4903005720       27.2855975841       14.7495836648  W2        14468           0.0000000000
     41644     13882  TIP3      OH2            -1.7454005720       30.9716575841       11.3238736648  W2        14469           0.0000000000
     41645     13882  TIP3      H1             -0.7993405720       30.8273575841       11.3048236648  W2        14469           0.0000000000
     41646     13882  TIP3      H2             -1.8577705720       31.7559375841       11.8609936648  W2        14469           0.0000000000
     41647     13883  TIP3      OH2            16.4524494280       31.6376275841       17.0062436648  W2        14470           0.0000000000
     41648     13883  TIP3      H1             16.4031294280       30.6824375841       16.9690036648  W2        14470           0.0000000000
     41649     13883  TIP3      H2             15.6256794280       31.9051575841       17.4076236648  W2        14470           0.0000000000
     41650     13884  TIP3      OH2             7.4308494280       31.2115475841       15.8823836648  W2        14471           0.0000000000
     41651     13884  TIP3      H1              7.5183094280       32.0380075841       16.3572936648  W2        14471           0.0000000000
     41652     13884  TIP3      H2              6.5673594280       30.8819275841       16.1313136648  W2        14471           0.0000000000
     41653     13885  TIP3      OH2             7.8454294280       34.9839175841        5.6884436648  W2        14472           0.0000000000
     41654     13885  TIP3      H1              7.7700294280       34.8626375841        4.7419636648  W2        14472           0.0000000000
     41655     13885  TIP3      H2              7.8782994280       35.9331875841        5.8069036648  W2        14472           0.0000000000
     41656     13886  TIP3      OH2             1.4988094280       33.7726175841        7.4693436648  W2        14473           0.0000000000
     41657     13886  TIP3      H1              1.6508494280       33.4246575841        8.3479936648  W2        14473           0.0000000000
     41658     13886  TIP3      H2              0.6478494280       33.4163475841        7.2140636648  W2        14473           0.0000000000
     41659     13887  TIP3      OH2            10.9470294280       34.1379375841        2.6906836648  W2        14474           0.0000000000
     41660     13887  TIP3      H1             11.3218694280       33.3935475841        2.2199436648  W2        14474           0.0000000000
     41661     13887  TIP3      H2             10.9513994280       33.8679975841        3.6090136648  W2        14474           0.0000000000
     41662     13888  TIP3      OH2            10.6158394280       34.0636475841        5.4399036648  W2        14475           0.0000000000
     41663     13888  TIP3      H1              9.6808194280       34.1638375841        5.6186036648  W2        14475           0.0000000000
     41664     13888  TIP3      H2             10.8960294280       33.3542475841        6.0182236648  W2        14475           0.0000000000
     41665     13889  TIP3      OH2            13.6044294280       23.1308775841       17.4864636648  W2        14476           0.0000000000
     41666     13889  TIP3      H1             13.1971094280       23.6114375841       16.7657936648  W2        14476           0.0000000000
     41667     13889  TIP3      H2             13.6449994280       22.2254775841       17.1785436648  W2        14476           0.0000000000
     41668     13890  TIP3      OH2             0.7533794280       29.5148175841       15.4831336648  W2        14477           0.0000000000
     41669     13890  TIP3      H1              0.9695094280       29.1533775841       16.3427136648  W2        14477           0.0000000000
     41670     13890  TIP3      H2             -0.1021505720       29.1401975841       15.2734836648  W2        14477           0.0000000000
     41671     13891  TIP3      OH2             3.3721794280       17.9848675841       11.4785536648  W2        14478           0.0000000000
     41672     13891  TIP3      H1              2.5105494280       17.8976875841       11.0708436648  W2        14478           0.0000000000
     41673     13891  TIP3      H2              3.3497494280       18.8408775841       11.9063136648  W2        14478           0.0000000000
     41674     13892  TIP3      OH2             8.0349594280       17.7069075841       14.8532536648  W2        14479           0.0000000000
     41675     13892  TIP3      H1              8.4552694280       17.2916175841       15.6063136648  W2        14479           0.0000000000
     41676     13892  TIP3      H2              7.1019194280       17.5282375841       14.9704536648  W2        14479           0.0000000000
     41677     13893  TIP3      OH2            11.3614494280       21.4624275841       15.7067036648  W2        14480           0.0000000000
     41678     13893  TIP3      H1             10.8473994280       21.3366475841       16.5043036648  W2        14480           0.0000000000
     41679     13893  TIP3      H2             11.2059194280       22.3747375841       15.4623236648  W2        14480           0.0000000000
     41680     13894  TIP3      OH2            12.1239394280       26.3234275841        1.4680036648  W2        14481           0.0000000000
     41681     13894  TIP3      H1             12.1660194280       26.1008175841        0.5380036648  W2        14481           0.0000000000
     41682     13894  TIP3      H2             12.9731494280       26.7221375841        1.6579936648  W2        14481           0.0000000000
     41683     13895  TIP3      OH2             7.6966894280       20.1992475841        2.1383336648  W2        14482           0.0000000000
     41684     13895  TIP3      H1              7.4431694280       20.2184075841        3.0611436648  W2        14482           0.0000000000
     41685     13895  TIP3      H2              7.4398994280       19.3277875841        1.8369536648  W2        14482           0.0000000000
     41686     13896  TIP3      OH2             3.4631894280       22.9503175841       12.5735736648  W2        14483           0.0000000000
     41687     13896  TIP3      H1              2.8213994280       22.9100475841       13.2825836648  W2        14483           0.0000000000
     41688     13896  TIP3      H2              3.5003894280       23.8767875841       12.3358736648  W2        14483           0.0000000000
     41689     13897  TIP3      OH2             3.4600994280       23.1713275841        7.4855736648  W2        14484           0.0000000000
     41690     13897  TIP3      H1              2.5673894280       22.8309375841        7.4269536648  W2        14484           0.0000000000
     41691     13897  TIP3      H2              3.9107594280       22.7944175841        6.7298936648  W2        14484           0.0000000000
     41692     13898  TIP3      OH2             8.9956494280       23.5873575841        6.3026536648  W2        14485           0.0000000000
     41693     13898  TIP3      H1              8.5866794280       24.4022175841        6.0111336648  W2        14485           0.0000000000
     41694     13898  TIP3      H2              9.7162694280       23.4473675841        5.6883636648  W2        14485           0.0000000000
     41695     13899  TIP3      OH2             8.0978094280       23.7629975841       17.7907236648  W2        14486           0.0000000000
     41696     13899  TIP3      H1              7.5351894280       23.0581575841       18.1115036648  W2        14486           0.0000000000
     41697     13899  TIP3      H2              8.9241494280       23.6421875841       18.2584836648  W2        14486           0.0000000000
     41698     13900  TIP3      OH2            10.0004194280       23.0333975841        9.1166236648  W2        14487           0.0000000000
     41699     13900  TIP3      H1              9.8048694280       23.6390775841        8.4016836648  W2        14487           0.0000000000
     41700     13900  TIP3      H2             10.1816794280       22.1999175841        8.6822536648  W2        14487           0.0000000000
     41701     13901  TIP3      OH2             1.2132394280       23.2706675841       14.4407736648  W2        14488           0.0000000000
     41702     13901  TIP3      H1              1.1751794280       23.6708275841       15.3094836648  W2        14488           0.0000000000
     41703     13901  TIP3      H2              0.7223494280       22.4539075841       14.5310636648  W2        14488           0.0000000000
     41704     13902  TIP3      OH2             4.5789794280       20.6448975841        1.2393736648  W2        14489           0.0000000000
     41705     13902  TIP3      H1              4.1480494280       20.1999075841        1.9691136648  W2        14489           0.0000000000
     41706     13902  TIP3      H2              3.8608494280       21.0165275841        0.7271236648  W2        14489           0.0000000000
     41707     13903  TIP3      OH2            -2.1786805720       20.3868475841        8.2912436648  W2        14490           0.0000000000
     41708     13903  TIP3      H1             -1.5479105720       20.3580575841        9.0106336648  W2        14490           0.0000000000
     41709     13903  TIP3      H2             -1.7292505720       19.9617175841        7.5608336648  W2        14490           0.0000000000
     41710     13904  TIP3      OH2            -0.9044705720       21.1330475841        3.7152836648  W2        14491           0.0000000000
     41711     13904  TIP3      H1             -0.4303005720       21.7240375841        3.1303736648  W2        14491           0.0000000000
     41712     13904  TIP3      H2             -1.6218305720       21.6633375841        4.0622936648  W2        14491           0.0000000000
     41713     13905  TIP3      OH2             9.2643394280       24.6715275841       13.7878636648  W2        14492           0.0000000000
     41714     13905  TIP3      H1              9.5878194280       24.0404975841       13.1449136648  W2        14492           0.0000000000
     41715     13905  TIP3      H2              8.8242694280       24.1367475841       14.4486036648  W2        14492           0.0000000000
     41716     13906  TIP3      OH2             6.0416294280       20.5990775841        8.5719836648  W2        14493           0.0000000000
     41717     13906  TIP3      H1              5.1307394280       20.6557575841        8.8605836648  W2        14493           0.0000000000
     41718     13906  TIP3      H2              6.5469194280       20.5386275841        9.3827036648  W2        14493           0.0000000000
     41719     13907  TIP3      OH2             0.8699694280       22.2277075841        7.3987436648  W2        14494           0.0000000000
     41720     13907  TIP3      H1             -0.0192305720       22.3272575841        7.0587036648  W2        14494           0.0000000000
     41721     13907  TIP3      H2              1.1664594280       21.3860075841        7.0525336648  W2        14494           0.0000000000
     41722     13908  TIP3      OH2             4.5231494280       22.2279675841        5.0552036648  W2        14495           0.0000000000
     41723     13908  TIP3      H1              5.4546994280       22.3569675841        5.2335136648  W2        14495           0.0000000000
     41724     13908  TIP3      H2              4.3081794280       22.8973975841        4.4056736648  W2        14495           0.0000000000
     41725     13909  TIP3      OH2            10.4468194280       19.8337075841       11.8361636648  W2        14496           0.0000000000
     41726     13909  TIP3      H1              9.7699794280       19.9650175841       12.5001336648  W2        14496           0.0000000000
     41727     13909  TIP3      H2              9.9613094280       19.6786575841       11.0259336648  W2        14496           0.0000000000
     41728     13910  TIP3      OH2             3.1971694280       23.4221875841        2.6218136648  W2        14497           0.0000000000
     41729     13910  TIP3      H1              2.6546794280       23.0425675841        1.9305736648  W2        14497           0.0000000000
     41730     13910  TIP3      H2              4.0306594280       23.6166575841        2.1932236648  W2        14497           0.0000000000
     41731     13911  TIP3      OH2             1.3323094280       27.9793775841       17.7209736648  W2        14499           0.0000000000
     41732     13911  TIP3      H1              2.0645494280       28.2339675841       18.2824236648  W2        14499           0.0000000000
     41733     13911  TIP3      H2              0.5521794280       28.1839175841       18.2365136648  W2        14499           0.0000000000
     41734     13912  TIP3      OH2             7.3615994280       23.3863775841       10.4589436648  W2        14500           0.0000000000
     41735     13912  TIP3      H1              7.9259394280       22.8400375841        9.9119036648  W2        14500           0.0000000000
     41736     13912  TIP3      H2              7.2139394280       22.8645675841       11.2477036648  W2        14500           0.0000000000
     41737     13913  TIP3      OH2             2.3635694280       19.5229875841        6.8774236648  W2        14501           0.0000000000
     41738     13913  TIP3      H1              2.0465194280       18.6205175841        6.8419636648  W2        14501           0.0000000000
     41739     13913  TIP3      H2              3.1449794280       19.5247275841        6.3245836648  W2        14501           0.0000000000
     41740     13914  TIP3      OH2             5.9881894280       21.7749875841       12.8729836648  W2        14502           0.0000000000
     41741     13914  TIP3      H1              5.1527194280       22.2289375841       12.9832236648  W2        14502           0.0000000000
     41742     13914  TIP3      H2              6.5122494280       22.0508375841       13.6249736648  W2        14502           0.0000000000
     41743     13915  TIP3      OH2             6.5324494280       27.9877575841        4.5576236648  W2        14503           0.0000000000
     41744     13915  TIP3      H1              5.7875494280       27.4802875841        4.2354136648  W2        14503           0.0000000000
     41745     13915  TIP3      H2              6.3981694280       28.0365575841        5.5041036648  W2        14503           0.0000000000
     41746     13916  TIP3      OH2            13.6823394280       27.1205775841       13.3443836648  W2        14504           0.0000000000
     41747     13916  TIP3      H1             14.3242194280       27.5772075841       12.8006036648  W2        14504           0.0000000000
     41748     13916  TIP3      H2             12.8520294280       27.2338175841       12.8817936648  W2        14504           0.0000000000
     41749     13917  TIP3      OH2            10.4301294280       20.8017475841        2.7568836648  W2        14505           0.0000000000
     41750     13917  TIP3      H1              9.4915494280       20.9133075841        2.6057636648  W2        14505           0.0000000000
     41751     13917  TIP3      H2             10.7273394280       21.6584375841        3.0634536648  W2        14505           0.0000000000
     41752     13918  TIP3      OH2             8.0516594280       28.1720875841       15.7945336648  W2        14506           0.0000000000
     41753     13918  TIP3      H1              7.7062694280       27.7903275841       16.6014936648  W2        14506           0.0000000000
     41754     13918  TIP3      H2              7.8516694280       29.1054475841       15.8658236648  W2        14506           0.0000000000
     41755     13919  TIP3      OH2            11.1484794280       22.6690175841        4.4176236648  W2        14507           0.0000000000
     41756     13919  TIP3      H1             12.0403794280       22.5315175841        4.7367436648  W2        14507           0.0000000000
     41757     13919  TIP3      H2             11.2048394280       23.4596275841        3.8809736648  W2        14507           0.0000000000
     41758     13920  TIP3      OH2             1.6572794280       27.2827575841       10.3274136648  W2        14508           0.0000000000
     41759     13920  TIP3      H1              2.4019994280       27.2803275841        9.7260636648  W2        14508           0.0000000000
     41760     13920  TIP3      H2              1.7349394280       26.4591375841       10.8089236648  W2        14508           0.0000000000
     41761     13921  TIP3      OH2             8.6578594280       29.4461875841        3.5830836648  W2        14509           0.0000000000
     41762     13921  TIP3      H1              8.3626994280       30.2729775841        3.9645636648  W2        14509           0.0000000000
     41763     13921  TIP3      H2              7.9548594280       28.8268775841        3.7792236648  W2        14509           0.0000000000
     41764     13922  TIP3      OH2            -1.3347505720       25.7434475841       15.6422636648  W2        14510           0.0000000000
     41765     13922  TIP3      H1             -1.1118905720       25.3254075841       16.4740136648  W2        14510           0.0000000000
     41766     13922  TIP3      H2             -1.9367405720       25.1309475841       15.2195436648  W2        14510           0.0000000000
     41767     13923  TIP3      OH2            10.3020194280       30.6336375841       15.7450336648  W2        14512           0.0000000000
     41768     13923  TIP3      H1              9.4014494280       30.8168975841       15.4774236648  W2        14512           0.0000000000
     41769     13923  TIP3      H2             10.3361294280       30.8925675841       16.6659136648  W2        14512           0.0000000000
     41770     13924  TIP3      OH2            16.0333494280       22.8784275841        4.1122936648  W2        14513           0.0000000000
     41771     13924  TIP3      H1             15.4789794280       22.4822275841        3.4400436648  W2        14513           0.0000000000
     41772     13924  TIP3      H2             16.1337094280       23.7889475841        3.8346236648  W2        14513           0.0000000000
     41773     13925  TIP3      OH2            15.9965494280       28.6785975841       16.9494436648  W2        14514           0.0000000000
     41774     13925  TIP3      H1             15.1453994280       28.9169775841       16.5820836648  W2        14514           0.0000000000
     41775     13925  TIP3      H2             16.5868894280       28.6619175841       16.1961536648  W2        14514           0.0000000000
     41776     13926  TIP3      OH2            14.3285194280       31.6644675841        4.5775036648  W2        14515           0.0000000000
     41777     13926  TIP3      H1             13.9556294280       30.8388475841        4.8865636648  W2        14515           0.0000000000
     41778     13926  TIP3      H2             14.6058694280       31.4814075841        3.6798436648  W2        14515           0.0000000000
     41779     13927  TIP3      OH2            11.4889094280       26.4724175841       11.5986936648  W2        14516           0.0000000000
     41780     13927  TIP3      H1             10.5605994280       26.2406075841       11.5716236648  W2        14516           0.0000000000
     41781     13927  TIP3      H2             11.9400194280       25.6953975841       11.2685736648  W2        14516           0.0000000000
     41782     13928  TIP3      OH2             4.0322194280       30.8005775841        7.7315636648  W2        14517           0.0000000000
     41783     13928  TIP3      H1              4.5594394280       31.5740175841        7.5314436648  W2        14517           0.0000000000
     41784     13928  TIP3      H2              3.1520694280       31.0254975841        7.4299636648  W2        14517           0.0000000000
     41785     13929  TIP3      OH2            -0.2130105720       25.6629875841        2.3188036648  W2        14518           0.0000000000
     41786     13929  TIP3      H1              0.4029794280       26.2897075841        2.6982836648  W2        14518           0.0000000000
     41787     13929  TIP3      H2             -1.0747505720       25.9789675841        2.5904536648  W2        14518           0.0000000000
     41788     13930  TIP3      OH2             5.4594494280       28.4635675841        7.3079936648  W2        14519           0.0000000000
     41789     13930  TIP3      H1              5.2184494280       29.3890075841        7.3495236648  W2        14519           0.0000000000
     41790     13930  TIP3      H2              4.7188094280       28.0046975841        7.7043836648  W2        14519           0.0000000000
     41791     13931  TIP3      OH2             5.9741094280       32.6129275841       13.6231036648  W2        14520           0.0000000000
     41792     13931  TIP3      H1              6.3365794280       33.4674875841       13.3895436648  W2        14520           0.0000000000
     41793     13931  TIP3      H2              6.5056294280       32.3210875841       14.3637336648  W2        14520           0.0000000000
     41794     13932  TIP3      OH2             4.1425294280       33.4853275841        6.8532136648  W2        14521           0.0000000000
     41795     13932  TIP3      H1              3.1925794280       33.5910675841        6.9045436648  W2        14521           0.0000000000
     41796     13932  TIP3      H2              4.4943394280       34.3060675841        7.1979636648  W2        14521           0.0000000000
     41797     13933  TIP3      OH2             9.5181894280       28.7119975841       13.3236636648  W2        14522           0.0000000000
     41798     13933  TIP3      H1              9.0923194280       28.4841675841       14.1500636648  W2        14522           0.0000000000
     41799     13933  TIP3      H2             10.0987694280       27.9731775841       13.1411936648  W2        14522           0.0000000000
     41800     13934  TIP3      OH2            11.7210794280       29.6410475841        2.3975636648  W2        14523           0.0000000000
     41801     13934  TIP3      H1             12.0743894280       29.2610275841        3.2019136648  W2        14523           0.0000000000
     41802     13934  TIP3      H2             10.7724294280       29.5475275841        2.4844936648  W2        14523           0.0000000000
     41803     13935  TIP3      OH2            12.1766094280       33.2639475841       15.7931436648  W2        14524           0.0000000000
     41804     13935  TIP3      H1             11.5749294280       32.7082375841       15.2977736648  W2        14524           0.0000000000
     41805     13935  TIP3      H2             12.4579794280       33.9309275841       15.1668836648  W2        14524           0.0000000000
     41806     13936  TIP3      OH2            16.2245194280       34.1202975841        2.5985836648  W2        14525           0.0000000000
     41807     13936  TIP3      H1             16.9683094280       34.7063475841        2.4587436648  W2        14525           0.0000000000
     41808     13936  TIP3      H2             15.5303294280       34.6888775841        2.9318236648  W2        14525           0.0000000000
     41809     13937  TIP3      OH2             0.2991994280       20.4967175841       15.2004036648  W2        14526           0.0000000000
     41810     13937  TIP3      H1             -0.5935705720       20.8352575841       15.1328036648  W2        14526           0.0000000000
     41811     13937  TIP3      H2              0.2004794280       19.6413275841       15.6184836648  W2        14526           0.0000000000
     41812     13938  TIP3      OH2            12.5870094280       28.3132475841        4.6243536648  W2        14527           0.0000000000
     41813     13938  TIP3      H1             12.3097694280       27.5851775841        5.1804636648  W2        14527           0.0000000000
     41814     13938  TIP3      H2             13.5143094280       28.4324475841        4.8296136648  W2        14527           0.0000000000
     41815     13939  TIP3      OH2            -0.0496005720       32.3011575841       13.6353436648  W2        14528           0.0000000000
     41816     13939  TIP3      H1              0.1674294280       31.3693975841       13.6043136648  W2        14528           0.0000000000
     41817     13939  TIP3      H2              0.1967494280       32.5756575841       14.5186236648  W2        14528           0.0000000000
     41818     13940  TIP3      OH2             5.8118594280       30.7526575841        0.8445636648  W2        14529           0.0000000000
     41819     13940  TIP3      H1              6.0508394280       30.0044675841        0.2974536648  W2        14529           0.0000000000
     41820     13940  TIP3      H2              5.5429894280       30.3648275841        1.6773436648  W2        14529           0.0000000000
     41821     13941  TIP3      OH2             4.7489194280       30.3230375841        3.3008236648  W2        14530           0.0000000000
     41822     13941  TIP3      H1              4.8957194280       29.8030175841        4.0909136648  W2        14530           0.0000000000
     41823     13941  TIP3      H2              4.7460894280       31.2297975841        3.6074136648  W2        14530           0.0000000000
     41824     13942  TIP3      OH2             1.2020294280       27.5753675841        3.8113636648  W2        14531           0.0000000000
     41825     13942  TIP3      H1              0.5159594280       27.9276175841        4.3783336648  W2        14531           0.0000000000
     41826     13942  TIP3      H2              1.7248194280       28.3383275841        3.5647936648  W2        14531           0.0000000000
     41827     13943  TIP3      OH2             9.0335394280       20.2377475841       14.0902636648  W2        14532           0.0000000000
     41828     13943  TIP3      H1              9.7323294280       20.3116175841       14.7402336648  W2        14532           0.0000000000
     41829     13943  TIP3      H2              8.6526794280       19.3732475841       14.2445536648  W2        14532           0.0000000000
     41830     13944  TIP3      OH2             9.8180294280       19.8899175841        5.1874936648  W2        14533           0.0000000000
     41831     13944  TIP3      H1             10.0378594280       20.3614575841        4.3840336648  W2        14533           0.0000000000
     41832     13944  TIP3      H2             10.3764294280       20.2841775841        5.8575536648  W2        14533           0.0000000000
     41833     13945  TIP3      OH2             7.4866394280       32.0203975841        4.0502436648  W2        14534           0.0000000000
     41834     13945  TIP3      H1              6.6702494280       32.5173675841        4.1026736648  W2        14534           0.0000000000
     41835     13945  TIP3      H2              8.0162694280       32.4957475841        3.4101236648  W2        14534           0.0000000000
     41836     13946  TIP3      OH2             7.0180194280       21.6177975841        6.0223336648  W2        14535           0.0000000000
     41837     13946  TIP3      H1              7.8302794280       22.1221175841        6.0685036648  W2        14535           0.0000000000
     41838     13946  TIP3      H2              6.7733194280       21.4727675841        6.9362936648  W2        14535           0.0000000000
     41839     13947  TIP3      OH2             7.5536594280       22.6040675841       15.2069936648  W2        14536           0.0000000000
     41840     13947  TIP3      H1              7.6726894280       23.1776075841       15.9640336648  W2        14536           0.0000000000
     41841     13947  TIP3      H2              8.2091194280       21.9160075841       15.3217736648  W2        14536           0.0000000000
     41842     13948  TIP3      OH2             7.9016894280       18.6990975841        6.9604436648  W2        14537           0.0000000000
     41843     13948  TIP3      H1              7.5550394280       19.3161575841        7.6048736648  W2        14537           0.0000000000
     41844     13948  TIP3      H2              8.5603794280       19.1996675841        6.4789936648  W2        14537           0.0000000000
     41845     13949  TIP3      OH2             4.8249494280       33.0641175841        4.0319336648  W2        14538           0.0000000000
     41846     13949  TIP3      H1              4.9858194280       33.8638675841        3.5311936648  W2        14538           0.0000000000
     41847     13949  TIP3      H2              4.6277294280       33.3707175841        4.9169936648  W2        14538           0.0000000000
     41848     13950  TIP3      OH2             3.5593894280       19.7620375841        3.6476936648  W2        14539           0.0000000000
     41849     13950  TIP3      H1              3.4758694280       20.6503475841        3.9943336648  W2        14539           0.0000000000
     41850     13950  TIP3      H2              4.4494194280       19.4967075841        3.8793736648  W2        14539           0.0000000000
     41851     13951  TIP3      OH2            13.7582394280       20.5110975841       16.0419636648  W2        14540           0.0000000000
     41852     13951  TIP3      H1             12.8418194280       20.7732675841       15.9543336648  W2        14540           0.0000000000
     41853     13951  TIP3      H2             14.0937394280       20.5079975841       15.1454936648  W2        14540           0.0000000000
     41854     13952  TIP3      OH2            12.3603394280       24.2611975841       10.1376936648  W2        14541           0.0000000000
     41855     13952  TIP3      H1             11.5627794280       23.8462175841        9.8091936648  W2        14541           0.0000000000
     41856     13952  TIP3      H2             12.8054494280       23.5705675841       10.6287436648  W2        14541           0.0000000000
     41857     13953  TIP3      OH2             1.8179194280       30.1892575841        2.7081436648  W2        14542           0.0000000000
     41858     13953  TIP3      H1              2.4100694280       30.8887375841        2.9843836648  W2        14542           0.0000000000
     41859     13953  TIP3      H2              2.2772194280       29.7562075841        1.9886036648  W2        14542           0.0000000000
     41860     13954  TIP3      OH2             0.1338394280       22.8535575841        1.8240836648  W2        14543           0.0000000000
     41861     13954  TIP3      H1              0.0890994280       23.7928675841        2.0027836648  W2        14543           0.0000000000
     41862     13954  TIP3      H2             -0.7538405720       22.6180475841        1.5542936648  W2        14543           0.0000000000
     41863     13955  TIP3      OH2            13.4467994280       33.5174475841       11.7600436648  W2        14544           0.0000000000
     41864     13955  TIP3      H1             13.2912294280       34.1958875841       11.1029736648  W2        14544           0.0000000000
     41865     13955  TIP3      H2             14.3794394280       33.5893775841       11.9631036648  W2        14544           0.0000000000
     41866     13956  TIP3      OH2             0.9420394280       17.6352175841       10.4971836648  W2        14545           0.0000000000
     41867     13956  TIP3      H1              0.7130194280       17.6944675841        9.5696836648  W2        14545           0.0000000000
     41868     13956  TIP3      H2              0.4993794280       16.8437675841       10.8035936648  W2        14545           0.0000000000
     41869     13957  TIP3      OH2            -0.1276305720       31.5759275841        6.6577636648  W2        14546           0.0000000000
     41870     13957  TIP3      H1             -0.9597705720       32.0481975841        6.6849036648  W2        14546           0.0000000000
     41871     13957  TIP3      H2              0.4181994280       32.0856875841        6.0590736648  W2        14546           0.0000000000
     41872     13958  TIP3      OH2             7.8500394280       32.6157975841        0.9831636648  W2        14549           0.0000000000
     41873     13958  TIP3      H1              7.2061394280       31.9846575841        1.3045336648  W2        14549           0.0000000000
     41874     13958  TIP3      H2              8.6118694280       32.0845975841        0.7515136648  W2        14549           0.0000000000
     41875     13959  TIP3      OH2            12.4543294280       32.4327875841        1.2169636648  W2        14551           0.0000000000
     41876     13959  TIP3      H1             12.7373694280       31.6383075841        1.6696536648  W2        14551           0.0000000000
     41877     13959  TIP3      H2             13.1941194280       32.6658875841        0.6560736648  W2        14551           0.0000000000
     41878     13960  TIP3      OH2             3.4090594280       28.3422775841        1.0744536648  W2        14553           0.0000000000
     41879     13960  TIP3      H1              3.4734694280       27.5482375841        1.6050936648  W2        14553           0.0000000000
     41880     13960  TIP3      H2              4.0619794280       28.2235575841        0.3846536648  W2        14553           0.0000000000
     41881     13961  TIP3      OH2             8.7613994280       29.3894475841        0.8102536648  W2        14555           0.0000000000
     41882     13961  TIP3      H1              8.4928094280       29.5696575841        1.7111436648  W2        14555           0.0000000000
     41883     13961  TIP3      H2              8.5549594280       28.4640675841        0.6788336648  W2        14555           0.0000000000
     41884     13962  TIP3      OH2            11.4578194280       27.8842475841       15.7578636648  W2        14556           0.0000000000
     41885     13962  TIP3      H1             12.2032994280       28.4726175841       15.6382636648  W2        14556           0.0000000000
     41886     13962  TIP3      H2             10.7004994280       28.4662175841       15.8211736648  W2        14556           0.0000000000
     41887     13963  TIP3      OH2             4.5584394280       26.3148975841        3.3802536648  W2        14558           0.0000000000
     41888     13963  TIP3      H1              4.0986394280       25.8307275841        4.0661036648  W2        14558           0.0000000000
     41889     13963  TIP3      H2              4.8133094280       25.6464375841        2.7443036648  W2        14558           0.0000000000
     41890     13964  TIP3      OH2             3.8473694280       24.2076075841       15.7362136648  W2        14559           0.0000000000
     41891     13964  TIP3      H1              3.2289794280       24.8822675841       16.0166836648  W2        14559           0.0000000000
     41892     13964  TIP3      H2              4.1914894280       24.5289975841       14.9028336648  W2        14559           0.0000000000
     41893     13965  TIP3      OH2             5.6294794280       24.5580775841        1.6425736648  W2        14560           0.0000000000
     41894     13965  TIP3      H1              5.4489794280       24.4031975841        0.7154036648  W2        14560           0.0000000000
     41895     13965  TIP3      H2              6.5795294280       24.6659475841        1.6873636648  W2        14560           0.0000000000
     41896     13966  TIP3      OH2            15.0193094280       26.9124975841        1.0883836648  W2        14562           0.0000000000
     41897     13966  TIP3      H1             14.7457894280       26.4880475841        0.2752136648  W2        14562           0.0000000000
     41898     13966  TIP3      H2             15.0587194280       27.8439475841        0.8714236648  W2        14562           0.0000000000
     41899     13967  TIP3      OH2             4.1867394280       21.5626875841       16.8185236648  W2        14563           0.0000000000
     41900     13967  TIP3      H1              4.3368294280       20.8338175841       16.2164936648  W2        14563           0.0000000000
     41901     13967  TIP3      H2              4.1889794280       22.3398575841       16.2597436648  W2        14563           0.0000000000
     41902     13968  TIP3      OH2             4.5993094280       19.9322675841       14.3112636648  W2        14564           0.0000000000
     41903     13968  TIP3      H1              5.1350594280       20.3839375841       13.6591936648  W2        14564           0.0000000000
     41904     13968  TIP3      H2              3.7472694280       19.8242475841       13.8886736648  W2        14564           0.0000000000
     41905     13969  TIP3      OH2             6.1811494280       25.3718875841       14.5507836648  W2        14565           0.0000000000
     41906     13969  TIP3      H1              6.9316294280       25.2156375841       13.9775636648  W2        14565           0.0000000000
     41907     13969  TIP3      H2              5.8419794280       26.2235475841       14.2753336648  W2        14565           0.0000000000
     41908     13970  TIP3      OH2            11.9134894280       25.9755875841       17.6565836648  W2        14567           0.0000000000
     41909     13970  TIP3      H1             11.6319894280       26.6850475841       17.0789636648  W2        14567           0.0000000000
     41910     13970  TIP3      H2             12.8559194280       25.9028875841       17.5057036648  W2        14567           0.0000000000
     41911     13971  TIP3      OH2             5.4048594280       17.3888375841       14.7426236648  W2        14569           0.0000000000
     41912     13971  TIP3      H1              5.3068194280       18.3351575841       14.6372436648  W2        14569           0.0000000000
     41913     13971  TIP3      H2              4.6624794280       17.0162175841       14.2669736648  W2        14569           0.0000000000
     41914     13972  TIP3      OH2             9.3845694280       20.8377275841       17.3818136648  W2        14571           0.0000000000
     41915     13972  TIP3      H1              8.4371094280       20.8696975841       17.5141436648  W2        14571           0.0000000000
     41916     13972  TIP3      H2              9.6972394280       20.2124375841       18.0356336648  W2        14571           0.0000000000
     41917     13973  TIP3      OH2             5.6266694280       16.6825775841       17.4139036648  W2        14574           0.0000000000
     41918     13973  TIP3      H1              6.3385094280       16.0427975841       17.3998136648  W2        14574           0.0000000000
     41919     13973  TIP3      H2              5.5257094280       16.9494075841       16.5002136648  W2        14574           0.0000000000
     41920     13974  TIP3      OH2             5.5266494280       35.2484475841        2.6439336648  W2        14576           0.0000000000
     41921     13974  TIP3      H1              6.4597194280       35.4063175841        2.7877736648  W2        14576           0.0000000000
     41922     13974  TIP3      H2              5.2625294280       35.9237475841        2.0190836648  W2        14576           0.0000000000
     41923     13975  TIP3      OH2            -0.9048605720       29.8848275841        2.1267436648  W2        14577           0.0000000000
     41924     13975  TIP3      H1              0.0090594280       29.9637175841        2.4001336648  W2        14577           0.0000000000
     41925     13975  TIP3      H2             -0.8975505720       29.1977875841        1.4603036648  W2        14577           0.0000000000
     41926     13976  TIP3      OH2            -2.2558005720       35.2776775841        7.2041336648  W2        14578           0.0000000000
     41927     13976  TIP3      H1             -2.9030905720       34.8158475841        6.6712536648  W2        14578           0.0000000000
     41928     13976  TIP3      H2             -1.9013405720       34.6060075841        7.7867536648  W2        14578           0.0000000000
     41929     13977  TIP3      OH2            -1.3858805720       33.3583775841        9.0087536648  W2        14579           0.0000000000
     41930     13977  TIP3      H1             -1.7202005720       32.4781075841        9.1807736648  W2        14579           0.0000000000
     41931     13977  TIP3      H2             -1.1636405720       33.7038775841        9.8733136648  W2        14579           0.0000000000
     41932     13978  TIP3      OH2            16.1625994280       34.1680175841       11.9892336648  W2        14580           0.0000000000
     41933     13978  TIP3      H1             16.1412694280       34.3528575841       12.9281736648  W2        14580           0.0000000000
     41934     13978  TIP3      H2             16.8532194280       34.7364175841       11.6483736648  W2        14580           0.0000000000
     41935     13979  TIP3      OH2            15.7258894280       33.7351275841       14.9111436648  W2        14581           0.0000000000
     41936     13979  TIP3      H1             15.2387594280       32.9995375841       14.5398836648  W2        14581           0.0000000000
     41937     13979  TIP3      H2             16.2751594280       33.3415175841       15.5890836648  W2        14581           0.0000000000
     41938     13980  TIP3      OH2            15.4775894280       27.7813075841        5.0634236648  W2        14583           0.0000000000
     41939     13980  TIP3      H1             16.3277294280       28.2023975841        5.1905836648  W2        14583           0.0000000000
     41940     13980  TIP3      H2             15.4830994280       27.0413175841        5.6705636648  W2        14583           0.0000000000
     41941     13981  TIP3      OH2            15.8721494280       25.8350475841        6.8869936648  W2        14584           0.0000000000
     41942     13981  TIP3      H1             15.1456094280       25.3553075841        7.2847536648  W2        14584           0.0000000000
     41943     13981  TIP3      H2             16.4534794280       26.0405175841        7.6191536648  W2        14584           0.0000000000
     41944     13982  TIP3      OH2            15.6312694280       28.6197975841       11.8347536648  W2        14585           0.0000000000
     41945     13982  TIP3      H1             16.4646894280       28.2417975841       11.5541136648  W2        14585           0.0000000000
     41946     13982  TIP3      H2             15.7432994280       29.5629175841       11.7156636648  W2        14585           0.0000000000
     41947     13983  TIP3      OH2            14.1174994280       31.4975475841       14.1415936648  W2        14586           0.0000000000
     41948     13983  TIP3      H1             13.4700294280       31.8226975841       14.7671136648  W2        14586           0.0000000000
     41949     13983  TIP3      H2             13.5998994280       31.0573175841       13.4674236648  W2        14586           0.0000000000
     41950     13984  TIP3      OH2            16.1404594280       25.7358975841        3.2781236648  W2        14587           0.0000000000
     41951     13984  TIP3      H1             15.6185694280       26.0923075841        2.5592136648  W2        14587           0.0000000000
     41952     13984  TIP3      H2             16.1073794280       26.4106775841        3.9562136648  W2        14587           0.0000000000
     41953     13985  TIP3      OH2            14.4893594280       22.9754575841        1.8288336648  W2        14588           0.0000000000
     41954     13985  TIP3      H1             14.5857994280       23.6421575841        1.1488036648  W2        14588           0.0000000000
     41955     13985  TIP3      H2             14.3493194280       22.1600875841        1.3473836648  W2        14588           0.0000000000
     41956     13986  TIP3      OH2            13.6588294280       24.3556975841        7.4498636648  W2        14589           0.0000000000
     41957     13986  TIP3      H1             13.5087094280       23.4105575841        7.4296436648  W2        14589           0.0000000000
     41958     13986  TIP3      H2             13.3052794280       24.6368375841        8.2937736648  W2        14589           0.0000000000
     41959     13987  TIP3      OH2            -1.3059305720       26.4339175841       11.4602436648  W2        14590           0.0000000000
     41960     13987  TIP3      H1             -1.1216405720       26.3520875841       10.5245336648  W2        14590           0.0000000000
     41961     13987  TIP3      H2             -0.4566405720       26.3096175841       11.8838836648  W2        14590           0.0000000000
     41962     13988  TIP3      OH2            14.5151194280       26.3260275841       17.0886936648  W2        14591           0.0000000000
     41963     13988  TIP3      H1             15.0978494280       25.5912575841       17.2804136648  W2        14591           0.0000000000
     41964     13988  TIP3      H2             15.0790494280       27.0980575841       17.1352736648  W2        14591           0.0000000000
     41965     13989  TIP3      OH2            16.0118294280       24.2286075841       17.7732336648  W2        14592           0.0000000000
     41966     13989  TIP3      H1             15.1484994280       23.8498175841       17.6077036648  W2        14592           0.0000000000
     41967     13989  TIP3      H2             16.6161994280       23.4900875841       17.6988136648  W2        14592           0.0000000000
     41968     13990  TIP3      OH2            13.7367394280       20.3834375841        0.9463836648  W2        14593           0.0000000000
     41969     13990  TIP3      H1             14.3473194280       20.0121175841        1.5832036648  W2        14593           0.0000000000
     41970     13990  TIP3      H2             12.8998894280       19.9621275841        1.1423836648  W2        14593           0.0000000000
     41971     13991  TIP3      OH2            13.3693094280       21.9382775841        5.9123736648  W2        14594           0.0000000000
     41972     13991  TIP3      H1             13.6490194280       21.0313175841        6.0365436648  W2        14594           0.0000000000
     41973     13991  TIP3      H2             14.1284794280       22.3724275841        5.5232936648  W2        14594           0.0000000000
     41974     13992  TIP3      OH2            13.9811394280       22.5200175841       11.3482636648  W2        14595           0.0000000000
     41975     13992  TIP3      H1             14.9139394280       22.7320075841       11.3138636648  W2        14595           0.0000000000
     41976     13992  TIP3      H2             13.7458894280       22.6212275841       12.2705636648  W2        14595           0.0000000000
     41977     13993  TIP3      OH2            14.0103294280       23.2565475841       14.1242036648  W2        14596           0.0000000000
     41978     13993  TIP3      H1             13.1674594280       23.5245875841       14.4901836648  W2        14596           0.0000000000
     41979     13993  TIP3      H2             14.4527594280       24.0787375841       13.9133136648  W2        14596           0.0000000000
     41980     13994  TIP3      OH2            -1.7084505720       21.7044175841       17.6011236648  W2        14597           0.0000000000
     41981     13994  TIP3      H1             -0.7889605720       21.5822475841       17.8374336648  W2        14597           0.0000000000
     41982     13994  TIP3      H2             -2.1580005720       20.9543875841       17.9904736648  W2        14597           0.0000000000
     41983     13995  TIP3      OH2            13.9827894280       19.2012075841        5.9605736648  W2        14599           0.0000000000
     41984     13995  TIP3      H1             14.1652894280       18.7523575841        6.7860736648  W2        14599           0.0000000000
     41985     13995  TIP3      H2             13.3830794280       18.6166475841        5.4970336648  W2        14599           0.0000000000
     41986     13996  TIP3      OH2            -0.4872005720       20.0165775841       10.4924136648  W2        14600           0.0000000000
     41987     13996  TIP3      H1             -0.0420405720       19.2248275841       10.7943836648  W2        14600           0.0000000000
     41988     13996  TIP3      H2             -0.0209005720       20.7330975841       10.9229736648  W2        14600           0.0000000000
     41989     13997  TIP3      OH2            -2.1831705720       23.0158775841       11.5614336648  W2        14601           0.0000000000
     41990     13997  TIP3      H1             -1.6911905720       22.7949275841       10.7706336648  W2        14601           0.0000000000
     41991     13997  TIP3      H2             -1.8210805720       23.8562175841       11.8423836648  W2        14601           0.0000000000
     41992     13998  TIP3      OH2            15.8494094280       19.2690175841        2.4886036648  W2        14603           0.0000000000
     41993     13998  TIP3      H1             16.2616694280       18.5475875841        2.0134036648  W2        14603           0.0000000000
     41994     13998  TIP3      H2             16.5310594280       19.9384775841        2.5470336648  W2        14603           0.0000000000
     41995     13999  TIP3      OH2            -1.8695205720       19.2737875841        5.6156736648  W2        14604           0.0000000000
     41996     13999  TIP3      H1             -2.7946805720       19.4824475841        5.4862236648  W2        14604           0.0000000000
     41997     13999  TIP3      H2             -1.4155305720       19.7578675841        4.9259036648  W2        14604           0.0000000000
     41998     14000  TIP3      OH2            12.9011994280       34.2579575841        7.5614136648  W2        14605           0.0000000000
     41999     14000  TIP3      H1             13.5534894280       33.9101675841        6.9533236648  W2        14605           0.0000000000
     42000     14000  TIP3      H2             13.4115794280       34.7462775841        8.2073836648  W2        14605           0.0000000000
     42001     14001  TIP3      OH2            -1.9059805720       18.0116875841       13.9599236648  W2        14606           0.0000000000
     42002     14001  TIP3      H1             -2.5709305720       17.7657175841       14.6030136648  W2        14606           0.0000000000
     42003     14001  TIP3      H2             -2.3488505720       18.6337275841       13.3827236648  W2        14606           0.0000000000
     42004     14002  TIP3      OH2             3.2402394280       32.1612175841       14.3629036648  W2        14608           0.0000000000
     42005     14002  TIP3      H1              2.8153494280       32.9710675841       14.0803636648  W2        14608           0.0000000000
     42006     14002  TIP3      H2              4.1445194280       32.2466275841       14.0608836648  W2        14608           0.0000000000
     42007     14003  TIP3      OH2             7.5513794280       33.5602175841       17.3222736648  W2        14609           0.0000000000
     42008     14003  TIP3      H1              7.7361294280       33.2268275841       18.2003036648  W2        14609           0.0000000000
     42009     14003  TIP3      H2              8.3978294280       33.8700775841       17.0001936648  W2        14609           0.0000000000
     42010     14004  TIP3      OH2             9.8964194280       34.8461075841       16.5664136648  W2        14610           0.0000000000
     42011     14004  TIP3      H1             10.5733094280       34.2133375841       16.3263336648  W2        14610           0.0000000000
     42012     14004  TIP3      H2             10.2182994280       35.2471575841       17.3737436648  W2        14610           0.0000000000
     42013     14005  TIP3      OH2            14.8137994280       17.4356575841       15.6459136648  W2        14611           0.0000000000
     42014     14005  TIP3      H1             14.0011494280       17.7606875841       15.2583836648  W2        14611           0.0000000000
     42015     14005  TIP3      H2             15.0466494280       16.6755075841       15.1128236648  W2        14611           0.0000000000
     42016     14006  TIP3      OH2             0.6419094280       35.4176075841       14.4104336648  W2        14612           0.0000000000
     42017     14006  TIP3      H1             -0.0784505720       35.8577075841       13.9592036648  W2        14612           0.0000000000
     42018     14006  TIP3      H2              0.2763094280       35.1670775841       15.2588336648  W2        14612           0.0000000000
     42019     14007  TIP3      OH2             3.1091694280       35.0179975841       13.4401536648  W2        14613           0.0000000000
     42020     14007  TIP3      H1              2.2443894280       35.0898475841       13.8441636648  W2        14613           0.0000000000
     42021     14007  TIP3      H2              3.0540694280       35.5647275841       12.6564036648  W2        14613           0.0000000000
     42022     14008  TIP3      OH2             7.8197294280       34.9058875841       12.6157536648  W2        14614           0.0000000000
     42023     14008  TIP3      H1              7.3631294280       35.4348575841       11.9615936648  W2        14614           0.0000000000
     42024     14008  TIP3      H2              7.9825294280       35.5090275841       13.3409836648  W2        14614           0.0000000000
     42025     14009  TIP3      OH2            10.1473594280       33.7838475841       13.5607836648  W2        14615           0.0000000000
     42026     14009  TIP3      H1              9.2427294280       33.9488675841       13.2949936648  W2        14615           0.0000000000
     42027     14009  TIP3      H2             10.5762194280       34.6370675841       13.4951236648  W2        14615           0.0000000000
     42028     14010  TIP3      OH2            12.7515494280       35.3537575841       13.8555636648  W2        14616           0.0000000000
     42029     14010  TIP3      H1             12.5697494280       36.2696475841       13.6450536648  W2        14616           0.0000000000
     42030     14010  TIP3      H2             12.9283294280       34.9434675841       13.0090236648  W2        14616           0.0000000000
     42031     14011  TIP3      OH2             0.0567194280       34.0408575841       11.3206136648  W2        14617           0.0000000000
     42032     14011  TIP3      H1              0.0383194280       33.6153675841       12.1778436648  W2        14617           0.0000000000
     42033     14011  TIP3      H2              0.8615094280       33.7223575841       10.9118336648  W2        14617           0.0000000000
     42034     14012  TIP3      OH2             2.1980294280       32.7507275841        9.9756036648  W2        14618           0.0000000000
     42035     14012  TIP3      H1              1.9790994280       31.8344675841       10.1452036648  W2        14618           0.0000000000
     42036     14012  TIP3      H2              3.0222494280       32.8907675841       10.4417436648  W2        14618           0.0000000000
     42037     14013  TIP3      OH2             4.7352794280       33.2206575841       10.8244036648  W2        14619           0.0000000000
     42038     14013  TIP3      H1              4.9478494280       32.3325575841       10.5374936648  W2        14619           0.0000000000
     42039     14013  TIP3      H2              4.7997894280       33.1864275841       11.7788036648  W2        14619           0.0000000000
     42040     14014  TIP3      OH2             8.2436494280       18.8847175841        9.9687336648  W2        14620           0.0000000000
     42041     14014  TIP3      H1              7.5693294280       18.2552775841       10.2243136648  W2        14620           0.0000000000
     42042     14014  TIP3      H2              8.8075694280       18.4006075841        9.3655236648  W2        14620           0.0000000000
     42043     14015  TIP3      OH2            13.3863694280       16.9921175841       10.0814436648  W2        14621           0.0000000000
     42044     14015  TIP3      H1             13.9901294280       17.5396575841        9.5795436648  W2        14621           0.0000000000
     42045     14015  TIP3      H2             12.5165694280       17.3111575841        9.8408536648  W2        14621           0.0000000000
     42046     14016  TIP3      OH2            15.1134094280       18.1309875841        8.4145336648  W2        14622           0.0000000000
     42047     14016  TIP3      H1             15.7251594280       17.6165575841        7.8878936648  W2        14622           0.0000000000
     42048     14016  TIP3      H2             15.4957494280       19.0081975841        8.4379736648  W2        14622           0.0000000000
     42049     14017  TIP3      OH2             0.5703994280       17.5187475841        7.7907236648  W2        14623           0.0000000000
     42050     14017  TIP3      H1             -0.2066205720       17.2842375841        7.2833136648  W2        14623           0.0000000000
     42051     14017  TIP3      H2              1.1007594280       16.7219575841        7.7995236648  W2        14623           0.0000000000
     42052     14018  TIP3      OH2            -0.5932605720       17.3165575841        3.5943336648  W2        14624           0.0000000000
     42053     14018  TIP3      H1             -0.1541905720       17.9276075841        3.0026836648  W2        14624           0.0000000000
     42054     14018  TIP3      H2             -1.2270205720       17.8549675841        4.0683336648  W2        14624           0.0000000000
     42055     14019  TIP3      OH2             5.1496594280       17.4454575841        7.6040336648  W2        14625           0.0000000000
     42056     14019  TIP3      H1              6.0239994280       17.8338875841        7.5744636648  W2        14625           0.0000000000
     42057     14019  TIP3      H2              5.0137394280       17.2302375841        8.5267536648  W2        14625           0.0000000000
     42058     14020  TIP3      OH2            10.7064994280       17.4754375841        9.2532036648  W2        14626           0.0000000000
     42059     14020  TIP3      H1             10.7826594280       17.5705975841        8.3038036648  W2        14626           0.0000000000
     42060     14020  TIP3      H2             10.4314194280       16.5677275841        9.3821136648  W2        14626           0.0000000000
     42061     14021  TIP3      OH2            12.0597594280       17.5012175841        4.9457036648  W2        14627           0.0000000000
     42062     14021  TIP3      H1             11.3568694280       18.1161375841        4.7358436648  W2        14627           0.0000000000
     42063     14021  TIP3      H2             11.6148994280       16.6638875841        5.0767936648  W2        14627           0.0000000000
     42064     14022  TIP3      OH2            -0.6923105720       33.2647775841        4.4918436648  W2        14628           0.0000000000
     42065     14022  TIP3      H1             -1.3773205720       33.2266675841        3.8243536648  W2        14628           0.0000000000
     42066     14022  TIP3      H2             -0.6885905720       34.1775375841        4.7800536648  W2        14628           0.0000000000
     42067     14023  TIP3      OH2             1.2676494280       19.2327075841        2.0367436648  W2        14629           0.0000000000
     42068     14023  TIP3      H1              1.7589894280       18.6029475841        1.5092936648  W2        14629           0.0000000000
     42069     14023  TIP3      H2              1.8912794280       19.5286475841        2.6998636648  W2        14629           0.0000000000
     42070     14024  TIP3      OH2             6.2936594280       19.5258575841        4.4937936648  W2        14630           0.0000000000
     42071     14024  TIP3      H1              6.4717894280       18.8791775841        5.1766536648  W2        14630           0.0000000000
     42072     14024  TIP3      H2              6.2402794280       20.3596275841        4.9609036648  W2        14630           0.0000000000
     42073     14025  TIP3      OH2             8.1720394280       34.4742675841        2.8894636648  W2        14631           0.0000000000
     42074     14025  TIP3      H1              9.0380594280       34.8410075841        2.7112836648  W2        14631           0.0000000000
     42075     14025  TIP3      H2              7.9253194280       34.0350675841        2.0755436648  W2        14631           0.0000000000
     42076     14026  TIP3      OH2            14.8809994280       34.0372975841        5.5685736648  W2        14632           0.0000000000
     42077     14026  TIP3      H1             14.6867094280       33.2895075841        5.0035336648  W2        14632           0.0000000000
     42078     14026  TIP3      H2             14.8420094280       34.7953075841        4.9853636648  W2        14632           0.0000000000
     42079     14027  TIP3      OH2             0.5281994280       18.0329375841       17.3083436648  W2        14633           0.0000000000
     42080     14027  TIP3      H1              0.1620194280       17.2671975841       17.7508136648  W2        14633           0.0000000000
     42081     14027  TIP3      H2              1.4410494280       18.0619575841       17.5948536648  W2        14633           0.0000000000
     42082     14028  TIP3      OH2             1.1258094280       34.1848575841        1.5170536648  W2        14635           0.0000000000
     42083     14028  TIP3      H1              0.8582694280       34.4711475841        2.3903636648  W2        14635           0.0000000000
     42084     14028  TIP3      H2              1.8970694280       33.6387775841        1.6693036648  W2        14635           0.0000000000
     42085     14029  TIP3      OH2            14.0986194280       32.7885375841       17.7187536648  W2        14637           0.0000000000
     42086     14029  TIP3      H1             13.3168094280       32.6023375841       17.1988136648  W2        14637           0.0000000000
     42087     14029  TIP3      H2             14.0266094280       33.7179675841       17.9360036648  W2        14637           0.0000000000
     42088     14030  TIP3      OH2            28.5046594280       26.6749775841        7.7494736648  W2        14638           0.0000000000
     42089     14030  TIP3      H1             28.5937694280       27.6187975841        7.6171836648  W2        14638           0.0000000000
     42090     14030  TIP3      H2             27.8664194280       26.3996175841        7.0914136648  W2        14638           0.0000000000
     42091     14031  TIP3      OH2            27.4377894280       25.9300475841       11.1682936648  W2        14639           0.0000000000
     42092     14031  TIP3      H1             27.3995394280       25.2836775841       11.8732536648  W2        14639           0.0000000000
     42093     14031  TIP3      H2             27.1154394280       25.4634875841       10.3971636648  W2        14639           0.0000000000
     42094     14032  TIP3      OH2            19.8062894280       25.5442575841       12.7612836648  W2        14640           0.0000000000
     42095     14032  TIP3      H1             19.8474994280       24.9185875841       13.4845236648  W2        14640           0.0000000000
     42096     14032  TIP3      H2             20.5090594280       26.1681175841       12.9433236648  W2        14640           0.0000000000
     42097     14033  TIP3      OH2            31.1438094280       28.8690875841        9.4698036648  W2        14641           0.0000000000
     42098     14033  TIP3      H1             30.7030794280       28.1486875841        9.9203636648  W2        14641           0.0000000000
     42099     14033  TIP3      H2             31.1307794280       29.5898075841       10.0995736648  W2        14641           0.0000000000
     42100     14034  TIP3      OH2            20.7295994280       29.9941475841       11.2961936648  W2        14642           0.0000000000
     42101     14034  TIP3      H1             20.3601194280       29.1921975841       10.9266236648  W2        14642           0.0000000000
     42102     14034  TIP3      H2             21.6707094280       29.8256375841       11.3425336648  W2        14642           0.0000000000
     42103     14035  TIP3      OH2            17.3396494280       23.6544075841        6.6890736648  W2        14643           0.0000000000
     42104     14035  TIP3      H1             16.8919894280       24.5002775841        6.6707236648  W2        14643           0.0000000000
     42105     14035  TIP3      H2             16.7787694280       23.0748275841        6.1735836648  W2        14643           0.0000000000
     42106     14036  TIP3      OH2            18.0502594280       25.8163675841        8.8148736648  W2        14644           0.0000000000
     42107     14036  TIP3      H1             18.2636094280       25.0465275841        9.3421736648  W2        14644           0.0000000000
     42108     14036  TIP3      H2             18.7880194280       25.9060375841        8.2116336648  W2        14644           0.0000000000
     42109     14037  TIP3      OH2            28.2553594280       33.9732575841        9.6818436648  W2        14645           0.0000000000
     42110     14037  TIP3      H1             28.8749994280       33.2967275841        9.4087636648  W2        14645           0.0000000000
     42111     14037  TIP3      H2             28.0470994280       33.7553375841       10.5903336648  W2        14645           0.0000000000
     42112     14038  TIP3      OH2            25.8272294280       28.3621875841       11.5743936648  W2        14646           0.0000000000
     42113     14038  TIP3      H1             26.1310194280       27.6763275841       10.9798036648  W2        14646           0.0000000000
     42114     14038  TIP3      H2             26.5486294280       28.4810575841       12.1921936648  W2        14646           0.0000000000
     42115     14039  TIP3      OH2            34.4902094280       19.9637175841       12.4350136648  W2        14647           0.0000000000
     42116     14039  TIP3      H1             34.5394294280       20.5738375841       13.1709236648  W2        14647           0.0000000000
     42117     14039  TIP3      H2             34.9157194280       20.4248075841       11.7121236648  W2        14647           0.0000000000
     42118     14040  TIP3      OH2            28.9679294280       22.7564275841       11.9018736648  W2        14648           0.0000000000
     42119     14040  TIP3      H1             29.1105194280       21.8101275841       11.9220336648  W2        14648           0.0000000000
     42120     14040  TIP3      H2             28.8618294280       22.9634075841       10.9733636648  W2        14648           0.0000000000
     42121     14041  TIP3      OH2            22.1227594280       20.8580675841        9.1743536648  W2        14649           0.0000000000
     42122     14041  TIP3      H1             22.1658694280       21.7179175841        8.7559836648  W2        14649           0.0000000000
     42123     14041  TIP3      H2             21.6651694280       20.3055375841        8.5406736648  W2        14649           0.0000000000
     42124     14042  TIP3      OH2            29.8450294280       20.9886275841        7.5751836648  W2        14650           0.0000000000
     42125     14042  TIP3      H1             30.4914594280       20.6599475841        8.1999436648  W2        14650           0.0000000000
     42126     14042  TIP3      H2             30.3549694280       21.5065275841        6.9523236648  W2        14650           0.0000000000
     42127     14043  TIP3      OH2            18.7429094280       23.2546475841        9.9364936648  W2        14651           0.0000000000
     42128     14043  TIP3      H1             19.3965694280       22.7048175841       10.3685036648  W2        14651           0.0000000000
     42129     14043  TIP3      H2             18.7668394280       22.9805475841        9.0196936648  W2        14651           0.0000000000
     42130     14044  TIP3      OH2            23.8993594280       24.8047775841        9.1516436648  W2        14652           0.0000000000
     42131     14044  TIP3      H1             24.5154594280       24.2783175841        9.6610436648  W2        14652           0.0000000000
     42132     14044  TIP3      H2             23.3132394280       24.1646475841        8.7480036648  W2        14652           0.0000000000
     42133     14045  TIP3      OH2            34.8816694280       21.4416375841       14.6709936648  W2        14653           0.0000000000
     42134     14045  TIP3      H1             34.1931294280       22.0997075841       14.5756536648  W2        14653           0.0000000000
     42135     14045  TIP3      H2             34.8971294280       21.2444275841       15.6075336648  W2        14653           0.0000000000
     42136     14046  TIP3      OH2            20.9329494280       19.7759075841       13.2484336648  W2        14654           0.0000000000
     42137     14046  TIP3      H1             20.7141194280       20.3059675841       12.4820336648  W2        14654           0.0000000000
     42138     14046  TIP3      H2             20.2650394280       20.0024575841       13.8955736648  W2        14654           0.0000000000
     42139     14047  TIP3      OH2            28.3019294280       29.2760175841        6.7923436648  W2        14655           0.0000000000
     42140     14047  TIP3      H1             28.0064394280       28.9532475841        5.9410336648  W2        14655           0.0000000000
     42141     14047  TIP3      H2             27.9777094280       30.1756875841        6.8336036648  W2        14655           0.0000000000
     42142     14048  TIP3      OH2            23.5020894280       27.4514775841       13.5358036648  W2        14656           0.0000000000
     42143     14048  TIP3      H1             22.7619994280       28.0496275841       13.6393236648  W2        14656           0.0000000000
     42144     14048  TIP3      H2             24.2160394280       28.0054375841       13.2201636648  W2        14656           0.0000000000
     42145     14049  TIP3      OH2            31.6088694280       20.2795575841        9.5557736648  W2        14657           0.0000000000
     42146     14049  TIP3      H1             31.3936694280       19.5138975841       10.0883736648  W2        14657           0.0000000000
     42147     14049  TIP3      H2             32.2646094280       20.7520175841       10.0686236648  W2        14657           0.0000000000
     42148     14050  TIP3      OH2            20.5266794280       21.6680875841       11.2006536648  W2        14658           0.0000000000
     42149     14050  TIP3      H1             21.1403094280       22.3008475841       11.5738936648  W2        14658           0.0000000000
     42150     14050  TIP3      H2             21.0387494280       21.1955875841       10.5443436648  W2        14658           0.0000000000
     42151     14051  TIP3      OH2            21.9095194280       29.4157775841       14.3229536648  W2        14659           0.0000000000
     42152     14051  TIP3      H1             21.9042794280       30.2951275841       13.9448836648  W2        14659           0.0000000000
     42153     14051  TIP3      H2             21.0559294280       29.3321875841       14.7479436648  W2        14659           0.0000000000
     42154     14052  TIP3      OH2            18.0306094280       29.0865675841        5.1048836648  W2        14660           0.0000000000
     42155     14052  TIP3      H1             17.7586994280       29.3156675841        4.2161736648  W2        14660           0.0000000000
     42156     14052  TIP3      H2             18.0761794280       29.9244475841        5.5654136648  W2        14660           0.0000000000
     42157     14053  TIP3      OH2            31.6555794280       30.7081575841       11.8177336648  W2        14661           0.0000000000
     42158     14053  TIP3      H1             30.7139494280       30.7665475841       11.9794236648  W2        14661           0.0000000000
     42159     14053  TIP3      H2             31.9321894280       31.6142075841       11.6807036648  W2        14661           0.0000000000
     42160     14054  TIP3      OH2            31.9562794280       18.9946875841       13.2351236648  W2        14662           0.0000000000
     42161     14054  TIP3      H1             31.2201994280       19.6053975841       13.1972536648  W2        14662           0.0000000000
     42162     14054  TIP3      H2             32.6396794280       19.4095875841       12.7087636648  W2        14662           0.0000000000
     42163     14055  TIP3      OH2            24.9594194280       17.0814175841       10.7009236648  W2        14663           0.0000000000
     42164     14055  TIP3      H1             24.8418394280       16.1330175841       10.6467536648  W2        14663           0.0000000000
     42165     14055  TIP3      H2             24.1044294280       17.4140275841       10.9740336648  W2        14663           0.0000000000
     42166     14056  TIP3      OH2            29.9076994280       32.4895075841        8.4428936648  W2        14664           0.0000000000
     42167     14056  TIP3      H1             30.3329294280       31.7822975841        7.9578536648  W2        14664           0.0000000000
     42168     14056  TIP3      H2             30.2246994280       33.2907775841        8.0261136648  W2        14664           0.0000000000
     42169     14057  TIP3      OH2            31.0673494280       30.3903575841        6.9515536648  W2        14665           0.0000000000
     42170     14057  TIP3      H1             30.8098294280       29.7003675841        6.3401436648  W2        14665           0.0000000000
     42171     14057  TIP3      H2             31.1384294280       29.9474775841        7.7971436648  W2        14665           0.0000000000
     42172     14058  TIP3      OH2            32.7533694280       28.9570275841       15.4289036648  W2        14666           0.0000000000
     42173     14058  TIP3      H1             32.8929994280       28.3652775841       14.6896036648  W2        14666           0.0000000000
     42174     14058  TIP3      H2             32.9206494280       29.8296175841       15.0727836648  W2        14666           0.0000000000
     42175     14059  TIP3      OH2            27.2259094280       25.9189775841        5.2015036648  W2        14667           0.0000000000
     42176     14059  TIP3      H1             26.5144594280       26.4539475841        4.8495536648  W2        14667           0.0000000000
     42177     14059  TIP3      H2             27.9168694280       25.9741875841        4.5413936648  W2        14667           0.0000000000
     42178     14060  TIP3      OH2            27.2798294280       24.3764075841        2.2400036648  W2        14668           0.0000000000
     42179     14060  TIP3      H1             27.9808194280       24.3990975841        2.8914036648  W2        14668           0.0000000000
     42180     14060  TIP3      H2             27.5821194280       23.7483775841        1.5839336648  W2        14668           0.0000000000
     42181     14061  TIP3      OH2            34.5952994280       25.2968275841       13.4949436648  W2        14669           0.0000000000
     42182     14061  TIP3      H1             33.9427094280       25.9913875841       13.5840336648  W2        14669           0.0000000000
     42183     14061  TIP3      H2             35.0603294280       25.5069175841       12.6851036648  W2        14669           0.0000000000
     42184     14062  TIP3      OH2            30.6316794280       26.1283075841        6.1530936648  W2        14670           0.0000000000
     42185     14062  TIP3      H1             29.8997794280       26.3566775841        6.7261536648  W2        14670           0.0000000000
     42186     14062  TIP3      H2             31.0788994280       25.4145775841        6.6078436648  W2        14670           0.0000000000
     42187     14063  TIP3      OH2            30.5290294280       24.3025675841       15.2207936648  W2        14671           0.0000000000
     42188     14063  TIP3      H1             30.6089394280       25.0660075841       15.7926436648  W2        14671           0.0000000000
     42189     14063  TIP3      H2             29.9277994280       24.5818075841       14.5303036648  W2        14671           0.0000000000
     42190     14064  TIP3      OH2            22.2770494280       26.7589275841        8.0355936648  W2        14672           0.0000000000
     42191     14064  TIP3      H1             21.9465694280       26.3882675841        7.2172936648  W2        14672           0.0000000000
     42192     14064  TIP3      H2             22.8654594280       26.0883275841        8.3824236648  W2        14672           0.0000000000
     42193     14065  TIP3      OH2            23.6437994280       30.1869875841       10.7168136648  W2        14673           0.0000000000
     42194     14065  TIP3      H1             23.5489294280       29.6082975841        9.9602736648  W2        14673           0.0000000000
     42195     14065  TIP3      H2             24.3731594280       29.8155575841       11.2130936648  W2        14673           0.0000000000
     42196     14066  TIP3      OH2            22.6435994280       25.5274875841       11.6690936648  W2        14674           0.0000000000
     42197     14066  TIP3      H1             23.2088494280       25.6489075841       10.9062136648  W2        14674           0.0000000000
     42198     14066  TIP3      H2             22.9624894280       26.1649875841       12.3079436648  W2        14674           0.0000000000
     42199     14067  TIP3      OH2            28.9528194280       31.0306775841       12.4031436648  W2        14675           0.0000000000
     42200     14067  TIP3      H1             28.7124794280       31.6929875841       13.0510636648  W2        14675           0.0000000000
     42201     14067  TIP3      H2             28.7546394280       30.1961975841       12.8281036648  W2        14675           0.0000000000
     42202     14068  TIP3      OH2            23.5236694280       29.9267575841       16.3862836648  W2        14676           0.0000000000
     42203     14068  TIP3      H1             23.2124194280       30.7090775841       16.8416036648  W2        14676           0.0000000000
     42204     14068  TIP3      H2             22.8736894280       29.7736675841       15.7004836648  W2        14676           0.0000000000
     42205     14069  TIP3      OH2            29.5026294280       25.2905975841        3.8382136648  W2        14677           0.0000000000
     42206     14069  TIP3      H1             30.0821794280       25.4406275841        4.5851036648  W2        14677           0.0000000000
     42207     14069  TIP3      H2             29.9166294280       25.7613375841        3.1148536648  W2        14677           0.0000000000
     42208     14070  TIP3      OH2            20.4436594280       26.1248675841       15.6148536648  W2        14678           0.0000000000
     42209     14070  TIP3      H1             20.5139794280       26.7755475841       16.3133536648  W2        14678           0.0000000000
     42210     14070  TIP3      H2             19.5528794280       26.2276175841       15.2799436648  W2        14678           0.0000000000
     42211     14071  TIP3      OH2            27.2291194280       32.0274475841        7.2735236648  W2        14679           0.0000000000
     42212     14071  TIP3      H1             27.7028794280       32.3230775841        8.0509436648  W2        14679           0.0000000000
     42213     14071  TIP3      H2             26.6660494280       32.7656075841        7.0404836648  W2        14679           0.0000000000
     42214     14072  TIP3      OH2            21.7632594280       31.9982575841       17.1496636648  W2        14680           0.0000000000
     42215     14072  TIP3      H1             21.7707894280       31.8622275841       16.2022136648  W2        14680           0.0000000000
     42216     14072  TIP3      H2             20.8472994280       31.8810675841       17.4016636648  W2        14680           0.0000000000
     42217     14073  TIP3      OH2            33.2014694280       17.0406375841        3.6511836648  W2        14681           0.0000000000
     42218     14073  TIP3      H1             32.3015394280       17.1795375841        3.9462436648  W2        14681           0.0000000000
     42219     14073  TIP3      H2             33.4533094280       17.8720975841        3.2493536648  W2        14681           0.0000000000
     42220     14074  TIP3      OH2            21.2673194280       25.8283575841        5.6248736648  W2        14682           0.0000000000
     42221     14074  TIP3      H1             20.9754494280       26.5965275841        5.1340036648  W2        14682           0.0000000000
     42222     14074  TIP3      H2             20.5928394280       25.1689775841        5.4620136648  W2        14682           0.0000000000
     42223     14075  TIP3      OH2            34.3906094280       31.4068775841        2.0275736648  W2        14683           0.0000000000
     42224     14075  TIP3      H1             34.4639594280       32.3458975841        2.1981036648  W2        14683           0.0000000000
     42225     14075  TIP3      H2             35.2961194280       31.1017375841        1.9713036648  W2        14683           0.0000000000
     42226     14076  TIP3      OH2            17.3603294280       28.1912775841       14.4398536648  W2        14684           0.0000000000
     42227     14076  TIP3      H1             16.8591694280       28.1632175841       13.6248236648  W2        14684           0.0000000000
     42228     14076  TIP3      H2             17.3656994280       27.2855975841       14.7495836648  W2        14684           0.0000000000
     42229     14077  TIP3      OH2            17.1105994280       30.9716575841       11.3238736648  W2        14685           0.0000000000
     42230     14077  TIP3      H1             18.0566594280       30.8273575841       11.3048236648  W2        14685           0.0000000000
     42231     14077  TIP3      H2             16.9982294280       31.7559375841       11.8609936648  W2        14685           0.0000000000
     42232     14078  TIP3      OH2            35.3084494280       31.6376275841       17.0062436648  W2        14686           0.0000000000
     42233     14078  TIP3      H1             35.2591294280       30.6824375841       16.9690036648  W2        14686           0.0000000000
     42234     14078  TIP3      H2             34.4816794280       31.9051575841       17.4076236648  W2        14686           0.0000000000
     42235     14079  TIP3      OH2            26.2868494280       31.2115475841       15.8823836648  W2        14687           0.0000000000
     42236     14079  TIP3      H1             26.3743094280       32.0380075841       16.3572936648  W2        14687           0.0000000000
     42237     14079  TIP3      H2             25.4233594280       30.8819275841       16.1313136648  W2        14687           0.0000000000
     42238     14080  TIP3      OH2            26.7014294280       34.9839175841        5.6884436648  W2        14688           0.0000000000
     42239     14080  TIP3      H1             26.6260294280       34.8626375841        4.7419636648  W2        14688           0.0000000000
     42240     14080  TIP3      H2             26.7342994280       35.9331875841        5.8069036648  W2        14688           0.0000000000
     42241     14081  TIP3      OH2            20.3548094280       33.7726175841        7.4693436648  W2        14689           0.0000000000
     42242     14081  TIP3      H1             20.5068494280       33.4246575841        8.3479936648  W2        14689           0.0000000000
     42243     14081  TIP3      H2             19.5038494280       33.4163475841        7.2140636648  W2        14689           0.0000000000
     42244     14082  TIP3      OH2            29.8030294280       34.1379375841        2.6906836648  W2        14690           0.0000000000
     42245     14082  TIP3      H1             30.1778694280       33.3935475841        2.2199436648  W2        14690           0.0000000000
     42246     14082  TIP3      H2             29.8073994280       33.8679975841        3.6090136648  W2        14690           0.0000000000
     42247     14083  TIP3      OH2            29.4718394280       34.0636475841        5.4399036648  W2        14691           0.0000000000
     42248     14083  TIP3      H1             28.5368194280       34.1638375841        5.6186036648  W2        14691           0.0000000000
     42249     14083  TIP3      H2             29.7520294280       33.3542475841        6.0182236648  W2        14691           0.0000000000
     42250     14084  TIP3      OH2            32.4604294280       23.1308775841       17.4864636648  W2        14692           0.0000000000
     42251     14084  TIP3      H1             32.0531094280       23.6114375841       16.7657936648  W2        14692           0.0000000000
     42252     14084  TIP3      H2             32.5009994280       22.2254775841       17.1785436648  W2        14692           0.0000000000
     42253     14085  TIP3      OH2            19.6093794280       29.5148175841       15.4831336648  W2        14693           0.0000000000
     42254     14085  TIP3      H1             19.8255094280       29.1533775841       16.3427136648  W2        14693           0.0000000000
     42255     14085  TIP3      H2             18.7538494280       29.1401975841       15.2734836648  W2        14693           0.0000000000
     42256     14086  TIP3      OH2            22.2281794280       17.9848675841       11.4785536648  W2        14694           0.0000000000
     42257     14086  TIP3      H1             21.3665494280       17.8976875841       11.0708436648  W2        14694           0.0000000000
     42258     14086  TIP3      H2             22.2057494280       18.8408775841       11.9063136648  W2        14694           0.0000000000
     42259     14087  TIP3      OH2            26.8909594280       17.7069075841       14.8532536648  W2        14695           0.0000000000
     42260     14087  TIP3      H1             27.3112694280       17.2916175841       15.6063136648  W2        14695           0.0000000000
     42261     14087  TIP3      H2             25.9579194280       17.5282375841       14.9704536648  W2        14695           0.0000000000
     42262     14088  TIP3      OH2            30.2174494280       21.4624275841       15.7067036648  W2        14696           0.0000000000
     42263     14088  TIP3      H1             29.7033994280       21.3366475841       16.5043036648  W2        14696           0.0000000000
     42264     14088  TIP3      H2             30.0619194280       22.3747375841       15.4623236648  W2        14696           0.0000000000
     42265     14089  TIP3      OH2            30.9799394280       26.3234275841        1.4680036648  W2        14697           0.0000000000
     42266     14089  TIP3      H1             31.0220194280       26.1008175841        0.5380036648  W2        14697           0.0000000000
     42267     14089  TIP3      H2             31.8291494280       26.7221375841        1.6579936648  W2        14697           0.0000000000
     42268     14090  TIP3      OH2            26.5526894280       20.1992475841        2.1383336648  W2        14698           0.0000000000
     42269     14090  TIP3      H1             26.2991694280       20.2184075841        3.0611436648  W2        14698           0.0000000000
     42270     14090  TIP3      H2             26.2958994280       19.3277875841        1.8369536648  W2        14698           0.0000000000
     42271     14091  TIP3      OH2            22.3191894280       22.9503175841       12.5735736648  W2        14699           0.0000000000
     42272     14091  TIP3      H1             21.6773994280       22.9100475841       13.2825836648  W2        14699           0.0000000000
     42273     14091  TIP3      H2             22.3563894280       23.8767875841       12.3358736648  W2        14699           0.0000000000
     42274     14092  TIP3      OH2            22.3160994280       23.1713275841        7.4855736648  W2        14700           0.0000000000
     42275     14092  TIP3      H1             21.4233894280       22.8309375841        7.4269536648  W2        14700           0.0000000000
     42276     14092  TIP3      H2             22.7667594280       22.7944175841        6.7298936648  W2        14700           0.0000000000
     42277     14093  TIP3      OH2            27.8516494280       23.5873575841        6.3026536648  W2        14701           0.0000000000
     42278     14093  TIP3      H1             27.4426794280       24.4022175841        6.0111336648  W2        14701           0.0000000000
     42279     14093  TIP3      H2             28.5722694280       23.4473675841        5.6883636648  W2        14701           0.0000000000
     42280     14094  TIP3      OH2            26.9538094280       23.7629975841       17.7907236648  W2        14702           0.0000000000
     42281     14094  TIP3      H1             26.3911894280       23.0581575841       18.1115036648  W2        14702           0.0000000000
     42282     14094  TIP3      H2             27.7801494280       23.6421875841       18.2584836648  W2        14702           0.0000000000
     42283     14095  TIP3      OH2            28.8564194280       23.0333975841        9.1166236648  W2        14703           0.0000000000
     42284     14095  TIP3      H1             28.6608694280       23.6390775841        8.4016836648  W2        14703           0.0000000000
     42285     14095  TIP3      H2             29.0376794280       22.1999175841        8.6822536648  W2        14703           0.0000000000
     42286     14096  TIP3      OH2            20.0692394280       23.2706675841       14.4407736648  W2        14704           0.0000000000
     42287     14096  TIP3      H1             20.0311794280       23.6708275841       15.3094836648  W2        14704           0.0000000000
     42288     14096  TIP3      H2             19.5783494280       22.4539075841       14.5310636648  W2        14704           0.0000000000
     42289     14097  TIP3      OH2            23.4349794280       20.6448975841        1.2393736648  W2        14705           0.0000000000
     42290     14097  TIP3      H1             23.0040494280       20.1999075841        1.9691136648  W2        14705           0.0000000000
     42291     14097  TIP3      H2             22.7168494280       21.0165275841        0.7271236648  W2        14705           0.0000000000
     42292     14098  TIP3      OH2            16.6773194280       20.3868475841        8.2912436648  W2        14706           0.0000000000
     42293     14098  TIP3      H1             17.3080894280       20.3580575841        9.0106336648  W2        14706           0.0000000000
     42294     14098  TIP3      H2             17.1267494280       19.9617175841        7.5608336648  W2        14706           0.0000000000
     42295     14099  TIP3      OH2            17.9515294280       21.1330475841        3.7152836648  W2        14707           0.0000000000
     42296     14099  TIP3      H1             18.4256994280       21.7240375841        3.1303736648  W2        14707           0.0000000000
     42297     14099  TIP3      H2             17.2341694280       21.6633375841        4.0622936648  W2        14707           0.0000000000
     42298     14100  TIP3      OH2            28.1203394280       24.6715275841       13.7878636648  W2        14708           0.0000000000
     42299     14100  TIP3      H1             28.4438194280       24.0404975841       13.1449136648  W2        14708           0.0000000000
     42300     14100  TIP3      H2             27.6802694280       24.1367475841       14.4486036648  W2        14708           0.0000000000
     42301     14101  TIP3      OH2            24.8976294280       20.5990775841        8.5719836648  W2        14709           0.0000000000
     42302     14101  TIP3      H1             23.9867394280       20.6557575841        8.8605836648  W2        14709           0.0000000000
     42303     14101  TIP3      H2             25.4029194280       20.5386275841        9.3827036648  W2        14709           0.0000000000
     42304     14102  TIP3      OH2            19.7259694280       22.2277075841        7.3987436648  W2        14710           0.0000000000
     42305     14102  TIP3      H1             18.8367694280       22.3272575841        7.0587036648  W2        14710           0.0000000000
     42306     14102  TIP3      H2             20.0224594280       21.3860075841        7.0525336648  W2        14710           0.0000000000
     42307     14103  TIP3      OH2            23.3791494280       22.2279675841        5.0552036648  W2        14711           0.0000000000
     42308     14103  TIP3      H1             24.3106994280       22.3569675841        5.2335136648  W2        14711           0.0000000000
     42309     14103  TIP3      H2             23.1641794280       22.8973975841        4.4056736648  W2        14711           0.0000000000
     42310     14104  TIP3      OH2            29.3028194280       19.8337075841       11.8361636648  W2        14712           0.0000000000
     42311     14104  TIP3      H1             28.6259794280       19.9650175841       12.5001336648  W2        14712           0.0000000000
     42312     14104  TIP3      H2             28.8173094280       19.6786575841       11.0259336648  W2        14712           0.0000000000
     42313     14105  TIP3      OH2            22.0531694280       23.4221875841        2.6218136648  W2        14713           0.0000000000
     42314     14105  TIP3      H1             21.5106794280       23.0425675841        1.9305736648  W2        14713           0.0000000000
     42315     14105  TIP3      H2             22.8866594280       23.6166575841        2.1932236648  W2        14713           0.0000000000
     42316     14106  TIP3      OH2            20.1883094280       27.9793775841       17.7209736648  W2        14715           0.0000000000
     42317     14106  TIP3      H1             20.9205494280       28.2339675841       18.2824236648  W2        14715           0.0000000000
     42318     14106  TIP3      H2             19.4081794280       28.1839175841       18.2365136648  W2        14715           0.0000000000
     42319     14107  TIP3      OH2            26.2175994280       23.3863775841       10.4589436648  W2        14716           0.0000000000
     42320     14107  TIP3      H1             26.7819394280       22.8400375841        9.9119036648  W2        14716           0.0000000000
     42321     14107  TIP3      H2             26.0699394280       22.8645675841       11.2477036648  W2        14716           0.0000000000
     42322     14108  TIP3      OH2            21.2195694280       19.5229875841        6.8774236648  W2        14717           0.0000000000
     42323     14108  TIP3      H1             20.9025194280       18.6205175841        6.8419636648  W2        14717           0.0000000000
     42324     14108  TIP3      H2             22.0009794280       19.5247275841        6.3245836648  W2        14717           0.0000000000
     42325     14109  TIP3      OH2            24.8441894280       21.7749875841       12.8729836648  W2        14718           0.0000000000
     42326     14109  TIP3      H1             24.0087194280       22.2289375841       12.9832236648  W2        14718           0.0000000000
     42327     14109  TIP3      H2             25.3682494280       22.0508375841       13.6249736648  W2        14718           0.0000000000
     42328     14110  TIP3      OH2            25.3884494280       27.9877575841        4.5576236648  W2        14719           0.0000000000
     42329     14110  TIP3      H1             24.6435494280       27.4802875841        4.2354136648  W2        14719           0.0000000000
     42330     14110  TIP3      H2             25.2541694280       28.0365575841        5.5041036648  W2        14719           0.0000000000
     42331     14111  TIP3      OH2            32.5383394280       27.1205775841       13.3443836648  W2        14720           0.0000000000
     42332     14111  TIP3      H1             33.1802194280       27.5772075841       12.8006036648  W2        14720           0.0000000000
     42333     14111  TIP3      H2             31.7080294280       27.2338175841       12.8817936648  W2        14720           0.0000000000
     42334     14112  TIP3      OH2            29.2861294280       20.8017475841        2.7568836648  W2        14721           0.0000000000
     42335     14112  TIP3      H1             28.3475494280       20.9133075841        2.6057636648  W2        14721           0.0000000000
     42336     14112  TIP3      H2             29.5833394280       21.6584375841        3.0634536648  W2        14721           0.0000000000
     42337     14113  TIP3      OH2            26.9076594280       28.1720875841       15.7945336648  W2        14722           0.0000000000
     42338     14113  TIP3      H1             26.5622694280       27.7903275841       16.6014936648  W2        14722           0.0000000000
     42339     14113  TIP3      H2             26.7076694280       29.1054475841       15.8658236648  W2        14722           0.0000000000
     42340     14114  TIP3      OH2            30.0044794280       22.6690175841        4.4176236648  W2        14723           0.0000000000
     42341     14114  TIP3      H1             30.8963794280       22.5315175841        4.7367436648  W2        14723           0.0000000000
     42342     14114  TIP3      H2             30.0608394280       23.4596275841        3.8809736648  W2        14723           0.0000000000
     42343     14115  TIP3      OH2            20.5132794280       27.2827575841       10.3274136648  W2        14724           0.0000000000
     42344     14115  TIP3      H1             21.2579994280       27.2803275841        9.7260636648  W2        14724           0.0000000000
     42345     14115  TIP3      H2             20.5909394280       26.4591375841       10.8089236648  W2        14724           0.0000000000
     42346     14116  TIP3      OH2            27.5138594280       29.4461875841        3.5830836648  W2        14725           0.0000000000
     42347     14116  TIP3      H1             27.2186994280       30.2729775841        3.9645636648  W2        14725           0.0000000000
     42348     14116  TIP3      H2             26.8108594280       28.8268775841        3.7792236648  W2        14725           0.0000000000
     42349     14117  TIP3      OH2            17.5212494280       25.7434475841       15.6422636648  W2        14726           0.0000000000
     42350     14117  TIP3      H1             17.7441094280       25.3254075841       16.4740136648  W2        14726           0.0000000000
     42351     14117  TIP3      H2             16.9192594280       25.1309475841       15.2195436648  W2        14726           0.0000000000
     42352     14118  TIP3      OH2            29.1580194280       30.6336375841       15.7450336648  W2        14728           0.0000000000
     42353     14118  TIP3      H1             28.2574494280       30.8168975841       15.4774236648  W2        14728           0.0000000000
     42354     14118  TIP3      H2             29.1921294280       30.8925675841       16.6659136648  W2        14728           0.0000000000
     42355     14119  TIP3      OH2            34.8893494280       22.8784275841        4.1122936648  W2        14729           0.0000000000
     42356     14119  TIP3      H1             34.3349794280       22.4822275841        3.4400436648  W2        14729           0.0000000000
     42357     14119  TIP3      H2             34.9897094280       23.7889475841        3.8346236648  W2        14729           0.0000000000
     42358     14120  TIP3      OH2            34.8525494280       28.6785975841       16.9494436648  W2        14730           0.0000000000
     42359     14120  TIP3      H1             34.0013994280       28.9169775841       16.5820836648  W2        14730           0.0000000000
     42360     14120  TIP3      H2             35.4428894280       28.6619175841       16.1961536648  W2        14730           0.0000000000
     42361     14121  TIP3      OH2            33.1845194280       31.6644675841        4.5775036648  W2        14731           0.0000000000
     42362     14121  TIP3      H1             32.8116294280       30.8388475841        4.8865636648  W2        14731           0.0000000000
     42363     14121  TIP3      H2             33.4618694280       31.4814075841        3.6798436648  W2        14731           0.0000000000
     42364     14122  TIP3      OH2            30.3449094280       26.4724175841       11.5986936648  W2        14732           0.0000000000
     42365     14122  TIP3      H1             29.4165994280       26.2406075841       11.5716236648  W2        14732           0.0000000000
     42366     14122  TIP3      H2             30.7960194280       25.6953975841       11.2685736648  W2        14732           0.0000000000
     42367     14123  TIP3      OH2            22.8882194280       30.8005775841        7.7315636648  W2        14733           0.0000000000
     42368     14123  TIP3      H1             23.4154394280       31.5740175841        7.5314436648  W2        14733           0.0000000000
     42369     14123  TIP3      H2             22.0080694280       31.0254975841        7.4299636648  W2        14733           0.0000000000
     42370     14124  TIP3      OH2            18.6429894280       25.6629875841        2.3188036648  W2        14734           0.0000000000
     42371     14124  TIP3      H1             19.2589794280       26.2897075841        2.6982836648  W2        14734           0.0000000000
     42372     14124  TIP3      H2             17.7812494280       25.9789675841        2.5904536648  W2        14734           0.0000000000
     42373     14125  TIP3      OH2            24.3154494280       28.4635675841        7.3079936648  W2        14735           0.0000000000
     42374     14125  TIP3      H1             24.0744494280       29.3890075841        7.3495236648  W2        14735           0.0000000000
     42375     14125  TIP3      H2             23.5748094280       28.0046975841        7.7043836648  W2        14735           0.0000000000
     42376     14126  TIP3      OH2            24.8301094280       32.6129275841       13.6231036648  W2        14736           0.0000000000
     42377     14126  TIP3      H1             25.1925794280       33.4674875841       13.3895436648  W2        14736           0.0000000000
     42378     14126  TIP3      H2             25.3616294280       32.3210875841       14.3637336648  W2        14736           0.0000000000
     42379     14127  TIP3      OH2            22.9985294280       33.4853275841        6.8532136648  W2        14737           0.0000000000
     42380     14127  TIP3      H1             22.0485794280       33.5910675841        6.9045436648  W2        14737           0.0000000000
     42381     14127  TIP3      H2             23.3503394280       34.3060675841        7.1979636648  W2        14737           0.0000000000
     42382     14128  TIP3      OH2            28.3741894280       28.7119975841       13.3236636648  W2        14738           0.0000000000
     42383     14128  TIP3      H1             27.9483194280       28.4841675841       14.1500636648  W2        14738           0.0000000000
     42384     14128  TIP3      H2             28.9547694280       27.9731775841       13.1411936648  W2        14738           0.0000000000
     42385     14129  TIP3      OH2            30.5770794280       29.6410475841        2.3975636648  W2        14739           0.0000000000
     42386     14129  TIP3      H1             30.9303894280       29.2610275841        3.2019136648  W2        14739           0.0000000000
     42387     14129  TIP3      H2             29.6284294280       29.5475275841        2.4844936648  W2        14739           0.0000000000
     42388     14130  TIP3      OH2            31.0326094280       33.2639475841       15.7931436648  W2        14740           0.0000000000
     42389     14130  TIP3      H1             30.4309294280       32.7082375841       15.2977736648  W2        14740           0.0000000000
     42390     14130  TIP3      H2             31.3139794280       33.9309275841       15.1668836648  W2        14740           0.0000000000
     42391     14131  TIP3      OH2            35.0805194280       34.1202975841        2.5985836648  W2        14741           0.0000000000
     42392     14131  TIP3      H1             35.8243094280       34.7063475841        2.4587436648  W2        14741           0.0000000000
     42393     14131  TIP3      H2             34.3863294280       34.6888775841        2.9318236648  W2        14741           0.0000000000
     42394     14132  TIP3      OH2            19.1551994280       20.4967175841       15.2004036648  W2        14742           0.0000000000
     42395     14132  TIP3      H1             18.2624294280       20.8352575841       15.1328036648  W2        14742           0.0000000000
     42396     14132  TIP3      H2             19.0564794280       19.6413275841       15.6184836648  W2        14742           0.0000000000
     42397     14133  TIP3      OH2            31.4430094280       28.3132475841        4.6243536648  W2        14743           0.0000000000
     42398     14133  TIP3      H1             31.1657694280       27.5851775841        5.1804636648  W2        14743           0.0000000000
     42399     14133  TIP3      H2             32.3703094280       28.4324475841        4.8296136648  W2        14743           0.0000000000
     42400     14134  TIP3      OH2            18.8063994280       32.3011575841       13.6353436648  W2        14744           0.0000000000
     42401     14134  TIP3      H1             19.0234294280       31.3693975841       13.6043136648  W2        14744           0.0000000000
     42402     14134  TIP3      H2             19.0527494280       32.5756575841       14.5186236648  W2        14744           0.0000000000
     42403     14135  TIP3      OH2            24.6678594280       30.7526575841        0.8445636648  W2        14745           0.0000000000
     42404     14135  TIP3      H1             24.9068394280       30.0044675841        0.2974536648  W2        14745           0.0000000000
     42405     14135  TIP3      H2             24.3989894280       30.3648275841        1.6773436648  W2        14745           0.0000000000
     42406     14136  TIP3      OH2            23.6049194280       30.3230375841        3.3008236648  W2        14746           0.0000000000
     42407     14136  TIP3      H1             23.7517194280       29.8030175841        4.0909136648  W2        14746           0.0000000000
     42408     14136  TIP3      H2             23.6020894280       31.2297975841        3.6074136648  W2        14746           0.0000000000
     42409     14137  TIP3      OH2            20.0580294280       27.5753675841        3.8113636648  W2        14747           0.0000000000
     42410     14137  TIP3      H1             19.3719594280       27.9276175841        4.3783336648  W2        14747           0.0000000000
     42411     14137  TIP3      H2             20.5808194280       28.3383275841        3.5647936648  W2        14747           0.0000000000
     42412     14138  TIP3      OH2            27.8895394280       20.2377475841       14.0902636648  W2        14748           0.0000000000
     42413     14138  TIP3      H1             28.5883294280       20.3116175841       14.7402336648  W2        14748           0.0000000000
     42414     14138  TIP3      H2             27.5086794280       19.3732475841       14.2445536648  W2        14748           0.0000000000
     42415     14139  TIP3      OH2            28.6740294280       19.8899175841        5.1874936648  W2        14749           0.0000000000
     42416     14139  TIP3      H1             28.8938594280       20.3614575841        4.3840336648  W2        14749           0.0000000000
     42417     14139  TIP3      H2             29.2324294280       20.2841775841        5.8575536648  W2        14749           0.0000000000
     42418     14140  TIP3      OH2            26.3426394280       32.0203975841        4.0502436648  W2        14750           0.0000000000
     42419     14140  TIP3      H1             25.5262494280       32.5173675841        4.1026736648  W2        14750           0.0000000000
     42420     14140  TIP3      H2             26.8722694280       32.4957475841        3.4101236648  W2        14750           0.0000000000
     42421     14141  TIP3      OH2            25.8740194280       21.6177975841        6.0223336648  W2        14751           0.0000000000
     42422     14141  TIP3      H1             26.6862794280       22.1221175841        6.0685036648  W2        14751           0.0000000000
     42423     14141  TIP3      H2             25.6293194280       21.4727675841        6.9362936648  W2        14751           0.0000000000
     42424     14142  TIP3      OH2            26.4096594280       22.6040675841       15.2069936648  W2        14752           0.0000000000
     42425     14142  TIP3      H1             26.5286894280       23.1776075841       15.9640336648  W2        14752           0.0000000000
     42426     14142  TIP3      H2             27.0651194280       21.9160075841       15.3217736648  W2        14752           0.0000000000
     42427     14143  TIP3      OH2            26.7576894280       18.6990975841        6.9604436648  W2        14753           0.0000000000
     42428     14143  TIP3      H1             26.4110394280       19.3161575841        7.6048736648  W2        14753           0.0000000000
     42429     14143  TIP3      H2             27.4163794280       19.1996675841        6.4789936648  W2        14753           0.0000000000
     42430     14144  TIP3      OH2            23.6809494280       33.0641175841        4.0319336648  W2        14754           0.0000000000
     42431     14144  TIP3      H1             23.8418194280       33.8638675841        3.5311936648  W2        14754           0.0000000000
     42432     14144  TIP3      H2             23.4837294280       33.3707175841        4.9169936648  W2        14754           0.0000000000
     42433     14145  TIP3      OH2            22.4153894280       19.7620375841        3.6476936648  W2        14755           0.0000000000
     42434     14145  TIP3      H1             22.3318694280       20.6503475841        3.9943336648  W2        14755           0.0000000000
     42435     14145  TIP3      H2             23.3054194280       19.4967075841        3.8793736648  W2        14755           0.0000000000
     42436     14146  TIP3      OH2            32.6142394280       20.5110975841       16.0419636648  W2        14756           0.0000000000
     42437     14146  TIP3      H1             31.6978194280       20.7732675841       15.9543336648  W2        14756           0.0000000000
     42438     14146  TIP3      H2             32.9497394280       20.5079975841       15.1454936648  W2        14756           0.0000000000
     42439     14147  TIP3      OH2            31.2163394280       24.2611975841       10.1376936648  W2        14757           0.0000000000
     42440     14147  TIP3      H1             30.4187794280       23.8462175841        9.8091936648  W2        14757           0.0000000000
     42441     14147  TIP3      H2             31.6614494280       23.5705675841       10.6287436648  W2        14757           0.0000000000
     42442     14148  TIP3      OH2            20.6739194280       30.1892575841        2.7081436648  W2        14758           0.0000000000
     42443     14148  TIP3      H1             21.2660694280       30.8887375841        2.9843836648  W2        14758           0.0000000000
     42444     14148  TIP3      H2             21.1332194280       29.7562075841        1.9886036648  W2        14758           0.0000000000
     42445     14149  TIP3      OH2            18.9898394280       22.8535575841        1.8240836648  W2        14759           0.0000000000
     42446     14149  TIP3      H1             18.9450994280       23.7928675841        2.0027836648  W2        14759           0.0000000000
     42447     14149  TIP3      H2             18.1021594280       22.6180475841        1.5542936648  W2        14759           0.0000000000
     42448     14150  TIP3      OH2            32.3027994280       33.5174475841       11.7600436648  W2        14760           0.0000000000
     42449     14150  TIP3      H1             32.1472294280       34.1958875841       11.1029736648  W2        14760           0.0000000000
     42450     14150  TIP3      H2             33.2354394280       33.5893775841       11.9631036648  W2        14760           0.0000000000
     42451     14151  TIP3      OH2            19.7980394280       17.6352175841       10.4971836648  W2        14761           0.0000000000
     42452     14151  TIP3      H1             19.5690194280       17.6944675841        9.5696836648  W2        14761           0.0000000000
     42453     14151  TIP3      H2             19.3553794280       16.8437675841       10.8035936648  W2        14761           0.0000000000
     42454     14152  TIP3      OH2            18.7283694280       31.5759275841        6.6577636648  W2        14762           0.0000000000
     42455     14152  TIP3      H1             17.8962294280       32.0481975841        6.6849036648  W2        14762           0.0000000000
     42456     14152  TIP3      H2             19.2741994280       32.0856875841        6.0590736648  W2        14762           0.0000000000
     42457     14153  TIP3      OH2            26.7060394280       32.6157975841        0.9831636648  W2        14765           0.0000000000
     42458     14153  TIP3      H1             26.0621394280       31.9846575841        1.3045336648  W2        14765           0.0000000000
     42459     14153  TIP3      H2             27.4678694280       32.0845975841        0.7515136648  W2        14765           0.0000000000
     42460     14154  TIP3      OH2            31.3103294280       32.4327875841        1.2169636648  W2        14767           0.0000000000
     42461     14154  TIP3      H1             31.5933694280       31.6383075841        1.6696536648  W2        14767           0.0000000000
     42462     14154  TIP3      H2             32.0501194280       32.6658875841        0.6560736648  W2        14767           0.0000000000
     42463     14155  TIP3      OH2            22.2650594280       28.3422775841        1.0744536648  W2        14769           0.0000000000
     42464     14155  TIP3      H1             22.3294694280       27.5482375841        1.6050936648  W2        14769           0.0000000000
     42465     14155  TIP3      H2             22.9179794280       28.2235575841        0.3846536648  W2        14769           0.0000000000
     42466     14156  TIP3      OH2            27.6173994280       29.3894475841        0.8102536648  W2        14771           0.0000000000
     42467     14156  TIP3      H1             27.3488094280       29.5696575841        1.7111436648  W2        14771           0.0000000000
     42468     14156  TIP3      H2             27.4109594280       28.4640675841        0.6788336648  W2        14771           0.0000000000
     42469     14157  TIP3      OH2            30.3138194280       27.8842475841       15.7578636648  W2        14772           0.0000000000
     42470     14157  TIP3      H1             31.0592994280       28.4726175841       15.6382636648  W2        14772           0.0000000000
     42471     14157  TIP3      H2             29.5564994280       28.4662175841       15.8211736648  W2        14772           0.0000000000
     42472     14158  TIP3      OH2            23.4144394280       26.3148975841        3.3802536648  W2        14774           0.0000000000
     42473     14158  TIP3      H1             22.9546394280       25.8307275841        4.0661036648  W2        14774           0.0000000000
     42474     14158  TIP3      H2             23.6693094280       25.6464375841        2.7443036648  W2        14774           0.0000000000
     42475     14159  TIP3      OH2            22.7033694280       24.2076075841       15.7362136648  W2        14775           0.0000000000
     42476     14159  TIP3      H1             22.0849794280       24.8822675841       16.0166836648  W2        14775           0.0000000000
     42477     14159  TIP3      H2             23.0474894280       24.5289975841       14.9028336648  W2        14775           0.0000000000
     42478     14160  TIP3      OH2            24.4854794280       24.5580775841        1.6425736648  W2        14776           0.0000000000
     42479     14160  TIP3      H1             24.3049794280       24.4031975841        0.7154036648  W2        14776           0.0000000000
     42480     14160  TIP3      H2             25.4355294280       24.6659475841        1.6873636648  W2        14776           0.0000000000
     42481     14161  TIP3      OH2            33.8753094280       26.9124975841        1.0883836648  W2        14778           0.0000000000
     42482     14161  TIP3      H1             33.6017894280       26.4880475841        0.2752136648  W2        14778           0.0000000000
     42483     14161  TIP3      H2             33.9147194280       27.8439475841        0.8714236648  W2        14778           0.0000000000
     42484     14162  TIP3      OH2            23.0427394280       21.5626875841       16.8185236648  W2        14779           0.0000000000
     42485     14162  TIP3      H1             23.1928294280       20.8338175841       16.2164936648  W2        14779           0.0000000000
     42486     14162  TIP3      H2             23.0449794280       22.3398575841       16.2597436648  W2        14779           0.0000000000
     42487     14163  TIP3      OH2            23.4553094280       19.9322675841       14.3112636648  W2        14780           0.0000000000
     42488     14163  TIP3      H1             23.9910594280       20.3839375841       13.6591936648  W2        14780           0.0000000000
     42489     14163  TIP3      H2             22.6032694280       19.8242475841       13.8886736648  W2        14780           0.0000000000
     42490     14164  TIP3      OH2            25.0371494280       25.3718875841       14.5507836648  W2        14781           0.0000000000
     42491     14164  TIP3      H1             25.7876294280       25.2156375841       13.9775636648  W2        14781           0.0000000000
     42492     14164  TIP3      H2             24.6979794280       26.2235475841       14.2753336648  W2        14781           0.0000000000
     42493     14165  TIP3      OH2            30.7694894280       25.9755875841       17.6565836648  W2        14783           0.0000000000
     42494     14165  TIP3      H1             30.4879894280       26.6850475841       17.0789636648  W2        14783           0.0000000000
     42495     14165  TIP3      H2             31.7119194280       25.9028875841       17.5057036648  W2        14783           0.0000000000
     42496     14166  TIP3      OH2            24.2608594280       17.3888375841       14.7426236648  W2        14785           0.0000000000
     42497     14166  TIP3      H1             24.1628194280       18.3351575841       14.6372436648  W2        14785           0.0000000000
     42498     14166  TIP3      H2             23.5184794280       17.0162175841       14.2669736648  W2        14785           0.0000000000
     42499     14167  TIP3      OH2            28.2405694280       20.8377275841       17.3818136648  W2        14787           0.0000000000
     42500     14167  TIP3      H1             27.2931094280       20.8696975841       17.5141436648  W2        14787           0.0000000000
     42501     14167  TIP3      H2             28.5532394280       20.2124375841       18.0356336648  W2        14787           0.0000000000
     42502     14168  TIP3      OH2            24.4826694280       16.6825775841       17.4139036648  W2        14790           0.0000000000
     42503     14168  TIP3      H1             25.1945094280       16.0427975841       17.3998136648  W2        14790           0.0000000000
     42504     14168  TIP3      H2             24.3817094280       16.9494075841       16.5002136648  W2        14790           0.0000000000
     42505     14169  TIP3      OH2            24.3826494280       35.2484475841        2.6439336648  W2        14792           0.0000000000
     42506     14169  TIP3      H1             25.3157194280       35.4063175841        2.7877736648  W2        14792           0.0000000000
     42507     14169  TIP3      H2             24.1185294280       35.9237475841        2.0190836648  W2        14792           0.0000000000
     42508     14170  TIP3      OH2            17.9511394280       29.8848275841        2.1267436648  W2        14793           0.0000000000
     42509     14170  TIP3      H1             18.8650594280       29.9637175841        2.4001336648  W2        14793           0.0000000000
     42510     14170  TIP3      H2             17.9584494280       29.1977875841        1.4603036648  W2        14793           0.0000000000
     42511     14171  TIP3      OH2            16.6001994280       35.2776775841        7.2041336648  W2        14794           0.0000000000
     42512     14171  TIP3      H1             15.9529094280       34.8158475841        6.6712536648  W2        14794           0.0000000000
     42513     14171  TIP3      H2             16.9546594280       34.6060075841        7.7867536648  W2        14794           0.0000000000
     42514     14172  TIP3      OH2            17.4701194280       33.3583775841        9.0087536648  W2        14795           0.0000000000
     42515     14172  TIP3      H1             17.1357994280       32.4781075841        9.1807736648  W2        14795           0.0000000000
     42516     14172  TIP3      H2             17.6923594280       33.7038775841        9.8733136648  W2        14795           0.0000000000
     42517     14173  TIP3      OH2            35.0185994280       34.1680175841       11.9892336648  W2        14796           0.0000000000
     42518     14173  TIP3      H1             34.9972694280       34.3528575841       12.9281736648  W2        14796           0.0000000000
     42519     14173  TIP3      H2             35.7092194280       34.7364175841       11.6483736648  W2        14796           0.0000000000
     42520     14174  TIP3      OH2            34.5818894280       33.7351275841       14.9111436648  W2        14797           0.0000000000
     42521     14174  TIP3      H1             34.0947594280       32.9995375841       14.5398836648  W2        14797           0.0000000000
     42522     14174  TIP3      H2             35.1311594280       33.3415175841       15.5890836648  W2        14797           0.0000000000
     42523     14175  TIP3      OH2            34.3335894280       27.7813075841        5.0634236648  W2        14799           0.0000000000
     42524     14175  TIP3      H1             35.1837294280       28.2023975841        5.1905836648  W2        14799           0.0000000000
     42525     14175  TIP3      H2             34.3390994280       27.0413175841        5.6705636648  W2        14799           0.0000000000
     42526     14176  TIP3      OH2            34.7281494280       25.8350475841        6.8869936648  W2        14800           0.0000000000
     42527     14176  TIP3      H1             34.0016094280       25.3553075841        7.2847536648  W2        14800           0.0000000000
     42528     14176  TIP3      H2             35.3094794280       26.0405175841        7.6191536648  W2        14800           0.0000000000
     42529     14177  TIP3      OH2            34.4872694280       28.6197975841       11.8347536648  W2        14801           0.0000000000
     42530     14177  TIP3      H1             35.3206894280       28.2417975841       11.5541136648  W2        14801           0.0000000000
     42531     14177  TIP3      H2             34.5992994280       29.5629175841       11.7156636648  W2        14801           0.0000000000
     42532     14178  TIP3      OH2            32.9734994280       31.4975475841       14.1415936648  W2        14802           0.0000000000
     42533     14178  TIP3      H1             32.3260294280       31.8226975841       14.7671136648  W2        14802           0.0000000000
     42534     14178  TIP3      H2             32.4558994280       31.0573175841       13.4674236648  W2        14802           0.0000000000
     42535     14179  TIP3      OH2            34.9964594280       25.7358975841        3.2781236648  W2        14803           0.0000000000
     42536     14179  TIP3      H1             34.4745694280       26.0923075841        2.5592136648  W2        14803           0.0000000000
     42537     14179  TIP3      H2             34.9633794280       26.4106775841        3.9562136648  W2        14803           0.0000000000
     42538     14180  TIP3      OH2            33.3453594280       22.9754575841        1.8288336648  W2        14804           0.0000000000
     42539     14180  TIP3      H1             33.4417994280       23.6421575841        1.1488036648  W2        14804           0.0000000000
     42540     14180  TIP3      H2             33.2053194280       22.1600875841        1.3473836648  W2        14804           0.0000000000
     42541     14181  TIP3      OH2            32.5148294280       24.3556975841        7.4498636648  W2        14805           0.0000000000
     42542     14181  TIP3      H1             32.3647094280       23.4105575841        7.4296436648  W2        14805           0.0000000000
     42543     14181  TIP3      H2             32.1612794280       24.6368375841        8.2937736648  W2        14805           0.0000000000
     42544     14182  TIP3      OH2            17.5500694280       26.4339175841       11.4602436648  W2        14806           0.0000000000
     42545     14182  TIP3      H1             17.7343594280       26.3520875841       10.5245336648  W2        14806           0.0000000000
     42546     14182  TIP3      H2             18.3993594280       26.3096175841       11.8838836648  W2        14806           0.0000000000
     42547     14183  TIP3      OH2            33.3711194280       26.3260275841       17.0886936648  W2        14807           0.0000000000
     42548     14183  TIP3      H1             33.9538494280       25.5912575841       17.2804136648  W2        14807           0.0000000000
     42549     14183  TIP3      H2             33.9350494280       27.0980575841       17.1352736648  W2        14807           0.0000000000
     42550     14184  TIP3      OH2            34.8678294280       24.2286075841       17.7732336648  W2        14808           0.0000000000
     42551     14184  TIP3      H1             34.0044994280       23.8498175841       17.6077036648  W2        14808           0.0000000000
     42552     14184  TIP3      H2             35.4721994280       23.4900875841       17.6988136648  W2        14808           0.0000000000
     42553     14185  TIP3      OH2            32.5927394280       20.3834375841        0.9463836648  W2        14809           0.0000000000
     42554     14185  TIP3      H1             33.2033194280       20.0121175841        1.5832036648  W2        14809           0.0000000000
     42555     14185  TIP3      H2             31.7558894280       19.9621275841        1.1423836648  W2        14809           0.0000000000
     42556     14186  TIP3      OH2            32.2253094280       21.9382775841        5.9123736648  W2        14810           0.0000000000
     42557     14186  TIP3      H1             32.5050194280       21.0313175841        6.0365436648  W2        14810           0.0000000000
     42558     14186  TIP3      H2             32.9844794280       22.3724275841        5.5232936648  W2        14810           0.0000000000
     42559     14187  TIP3      OH2            32.8371394280       22.5200175841       11.3482636648  W2        14811           0.0000000000
     42560     14187  TIP3      H1             33.7699394280       22.7320075841       11.3138636648  W2        14811           0.0000000000
     42561     14187  TIP3      H2             32.6018894280       22.6212275841       12.2705636648  W2        14811           0.0000000000
     42562     14188  TIP3      OH2            32.8663294280       23.2565475841       14.1242036648  W2        14812           0.0000000000
     42563     14188  TIP3      H1             32.0234594280       23.5245875841       14.4901836648  W2        14812           0.0000000000
     42564     14188  TIP3      H2             33.3087594280       24.0787375841       13.9133136648  W2        14812           0.0000000000
     42565     14189  TIP3      OH2            17.1475494280       21.7044175841       17.6011236648  W2        14813           0.0000000000
     42566     14189  TIP3      H1             18.0670394280       21.5822475841       17.8374336648  W2        14813           0.0000000000
     42567     14189  TIP3      H2             16.6979994280       20.9543875841       17.9904736648  W2        14813           0.0000000000
     42568     14190  TIP3      OH2            32.8387894280       19.2012075841        5.9605736648  W2        14815           0.0000000000
     42569     14190  TIP3      H1             33.0212894280       18.7523575841        6.7860736648  W2        14815           0.0000000000
     42570     14190  TIP3      H2             32.2390794280       18.6166475841        5.4970336648  W2        14815           0.0000000000
     42571     14191  TIP3      OH2            18.3687994280       20.0165775841       10.4924136648  W2        14816           0.0000000000
     42572     14191  TIP3      H1             18.8139594280       19.2248275841       10.7943836648  W2        14816           0.0000000000
     42573     14191  TIP3      H2             18.8350994280       20.7330975841       10.9229736648  W2        14816           0.0000000000
     42574     14192  TIP3      OH2            16.6728294280       23.0158775841       11.5614336648  W2        14817           0.0000000000
     42575     14192  TIP3      H1             17.1648094280       22.7949275841       10.7706336648  W2        14817           0.0000000000
     42576     14192  TIP3      H2             17.0349194280       23.8562175841       11.8423836648  W2        14817           0.0000000000
     42577     14193  TIP3      OH2            34.7054094280       19.2690175841        2.4886036648  W2        14819           0.0000000000
     42578     14193  TIP3      H1             35.1176694280       18.5475875841        2.0134036648  W2        14819           0.0000000000
     42579     14193  TIP3      H2             35.3870594280       19.9384775841        2.5470336648  W2        14819           0.0000000000
     42580     14194  TIP3      OH2            16.9864794280       19.2737875841        5.6156736648  W2        14820           0.0000000000
     42581     14194  TIP3      H1             16.0613194280       19.4824475841        5.4862236648  W2        14820           0.0000000000
     42582     14194  TIP3      H2             17.4404694280       19.7578675841        4.9259036648  W2        14820           0.0000000000
     42583     14195  TIP3      OH2            31.7571994280       34.2579575841        7.5614136648  W2        14821           0.0000000000
     42584     14195  TIP3      H1             32.4094894280       33.9101675841        6.9533236648  W2        14821           0.0000000000
     42585     14195  TIP3      H2             32.2675794280       34.7462775841        8.2073836648  W2        14821           0.0000000000
     42586     14196  TIP3      OH2            16.9500194280       18.0116875841       13.9599236648  W2        14822           0.0000000000
     42587     14196  TIP3      H1             16.2850694280       17.7657175841       14.6030136648  W2        14822           0.0000000000
     42588     14196  TIP3      H2             16.5071494280       18.6337275841       13.3827236648  W2        14822           0.0000000000
     42589     14197  TIP3      OH2            22.0962394280       32.1612175841       14.3629036648  W2        14824           0.0000000000
     42590     14197  TIP3      H1             21.6713494280       32.9710675841       14.0803636648  W2        14824           0.0000000000
     42591     14197  TIP3      H2             23.0005194280       32.2466275841       14.0608836648  W2        14824           0.0000000000
     42592     14198  TIP3      OH2            26.4073794280       33.5602175841       17.3222736648  W2        14825           0.0000000000
     42593     14198  TIP3      H1             26.5921294280       33.2268275841       18.2003036648  W2        14825           0.0000000000
     42594     14198  TIP3      H2             27.2538294280       33.8700775841       17.0001936648  W2        14825           0.0000000000
     42595     14199  TIP3      OH2            28.7524194280       34.8461075841       16.5664136648  W2        14826           0.0000000000
     42596     14199  TIP3      H1             29.4293094280       34.2133375841       16.3263336648  W2        14826           0.0000000000
     42597     14199  TIP3      H2             29.0742994280       35.2471575841       17.3737436648  W2        14826           0.0000000000
     42598     14200  TIP3      OH2            33.6697994280       17.4356575841       15.6459136648  W2        14827           0.0000000000
     42599     14200  TIP3      H1             32.8571494280       17.7606875841       15.2583836648  W2        14827           0.0000000000
     42600     14200  TIP3      H2             33.9026494280       16.6755075841       15.1128236648  W2        14827           0.0000000000
     42601     14201  TIP3      OH2            19.4979094280       35.4176075841       14.4104336648  W2        14828           0.0000000000
     42602     14201  TIP3      H1             18.7775494280       35.8577075841       13.9592036648  W2        14828           0.0000000000
     42603     14201  TIP3      H2             19.1323094280       35.1670775841       15.2588336648  W2        14828           0.0000000000
     42604     14202  TIP3      OH2            21.9651694280       35.0179975841       13.4401536648  W2        14829           0.0000000000
     42605     14202  TIP3      H1             21.1003894280       35.0898475841       13.8441636648  W2        14829           0.0000000000
     42606     14202  TIP3      H2             21.9100694280       35.5647275841       12.6564036648  W2        14829           0.0000000000
     42607     14203  TIP3      OH2            26.6757294280       34.9058875841       12.6157536648  W2        14830           0.0000000000
     42608     14203  TIP3      H1             26.2191294280       35.4348575841       11.9615936648  W2        14830           0.0000000000
     42609     14203  TIP3      H2             26.8385294280       35.5090275841       13.3409836648  W2        14830           0.0000000000
     42610     14204  TIP3      OH2            29.0033594280       33.7838475841       13.5607836648  W2        14831           0.0000000000
     42611     14204  TIP3      H1             28.0987294280       33.9488675841       13.2949936648  W2        14831           0.0000000000
     42612     14204  TIP3      H2             29.4322194280       34.6370675841       13.4951236648  W2        14831           0.0000000000
     42613     14205  TIP3      OH2            31.6075494280       35.3537575841       13.8555636648  W2        14832           0.0000000000
     42614     14205  TIP3      H1             31.4257494280       36.2696475841       13.6450536648  W2        14832           0.0000000000
     42615     14205  TIP3      H2             31.7843294280       34.9434675841       13.0090236648  W2        14832           0.0000000000
     42616     14206  TIP3      OH2            18.9127194280       34.0408575841       11.3206136648  W2        14833           0.0000000000
     42617     14206  TIP3      H1             18.8943194280       33.6153675841       12.1778436648  W2        14833           0.0000000000
     42618     14206  TIP3      H2             19.7175094280       33.7223575841       10.9118336648  W2        14833           0.0000000000
     42619     14207  TIP3      OH2            21.0540294280       32.7507275841        9.9756036648  W2        14834           0.0000000000
     42620     14207  TIP3      H1             20.8350994280       31.8344675841       10.1452036648  W2        14834           0.0000000000
     42621     14207  TIP3      H2             21.8782494280       32.8907675841       10.4417436648  W2        14834           0.0000000000
     42622     14208  TIP3      OH2            23.5912794280       33.2206575841       10.8244036648  W2        14835           0.0000000000
     42623     14208  TIP3      H1             23.8038494280       32.3325575841       10.5374936648  W2        14835           0.0000000000
     42624     14208  TIP3      H2             23.6557894280       33.1864275841       11.7788036648  W2        14835           0.0000000000
     42625     14209  TIP3      OH2            27.0996494280       18.8847175841        9.9687336648  W2        14836           0.0000000000
     42626     14209  TIP3      H1             26.4253294280       18.2552775841       10.2243136648  W2        14836           0.0000000000
     42627     14209  TIP3      H2             27.6635694280       18.4006075841        9.3655236648  W2        14836           0.0000000000
     42628     14210  TIP3      OH2            32.2423694280       16.9921175841       10.0814436648  W2        14837           0.0000000000
     42629     14210  TIP3      H1             32.8461294280       17.5396575841        9.5795436648  W2        14837           0.0000000000
     42630     14210  TIP3      H2             31.3725694280       17.3111575841        9.8408536648  W2        14837           0.0000000000
     42631     14211  TIP3      OH2            33.9694094280       18.1309875841        8.4145336648  W2        14838           0.0000000000
     42632     14211  TIP3      H1             34.5811594280       17.6165575841        7.8878936648  W2        14838           0.0000000000
     42633     14211  TIP3      H2             34.3517494280       19.0081975841        8.4379736648  W2        14838           0.0000000000
     42634     14212  TIP3      OH2            19.4263994280       17.5187475841        7.7907236648  W2        14839           0.0000000000
     42635     14212  TIP3      H1             18.6493794280       17.2842375841        7.2833136648  W2        14839           0.0000000000
     42636     14212  TIP3      H2             19.9567594280       16.7219575841        7.7995236648  W2        14839           0.0000000000
     42637     14213  TIP3      OH2            18.2627394280       17.3165575841        3.5943336648  W2        14840           0.0000000000
     42638     14213  TIP3      H1             18.7018094280       17.9276075841        3.0026836648  W2        14840           0.0000000000
     42639     14213  TIP3      H2             17.6289794280       17.8549675841        4.0683336648  W2        14840           0.0000000000
     42640     14214  TIP3      OH2            24.0056594280       17.4454575841        7.6040336648  W2        14841           0.0000000000
     42641     14214  TIP3      H1             24.8799994280       17.8338875841        7.5744636648  W2        14841           0.0000000000
     42642     14214  TIP3      H2             23.8697394280       17.2302375841        8.5267536648  W2        14841           0.0000000000
     42643     14215  TIP3      OH2            29.5624994280       17.4754375841        9.2532036648  W2        14842           0.0000000000
     42644     14215  TIP3      H1             29.6386594280       17.5705975841        8.3038036648  W2        14842           0.0000000000
     42645     14215  TIP3      H2             29.2874194280       16.5677275841        9.3821136648  W2        14842           0.0000000000
     42646     14216  TIP3      OH2            30.9157594280       17.5012175841        4.9457036648  W2        14843           0.0000000000
     42647     14216  TIP3      H1             30.2128694280       18.1161375841        4.7358436648  W2        14843           0.0000000000
     42648     14216  TIP3      H2             30.4708994280       16.6638875841        5.0767936648  W2        14843           0.0000000000
     42649     14217  TIP3      OH2            18.1636894280       33.2647775841        4.4918436648  W2        14844           0.0000000000
     42650     14217  TIP3      H1             17.4786794280       33.2266675841        3.8243536648  W2        14844           0.0000000000
     42651     14217  TIP3      H2             18.1674094280       34.1775375841        4.7800536648  W2        14844           0.0000000000
     42652     14218  TIP3      OH2            20.1236494280       19.2327075841        2.0367436648  W2        14845           0.0000000000
     42653     14218  TIP3      H1             20.6149894280       18.6029475841        1.5092936648  W2        14845           0.0000000000
     42654     14218  TIP3      H2             20.7472794280       19.5286475841        2.6998636648  W2        14845           0.0000000000
     42655     14219  TIP3      OH2            25.1496594280       19.5258575841        4.4937936648  W2        14846           0.0000000000
     42656     14219  TIP3      H1             25.3277894280       18.8791775841        5.1766536648  W2        14846           0.0000000000
     42657     14219  TIP3      H2             25.0962794280       20.3596275841        4.9609036648  W2        14846           0.0000000000
     42658     14220  TIP3      OH2            27.0280394280       34.4742675841        2.8894636648  W2        14847           0.0000000000
     42659     14220  TIP3      H1             27.8940594280       34.8410075841        2.7112836648  W2        14847           0.0000000000
     42660     14220  TIP3      H2             26.7813194280       34.0350675841        2.0755436648  W2        14847           0.0000000000
     42661     14221  TIP3      OH2            33.7369994280       34.0372975841        5.5685736648  W2        14848           0.0000000000
     42662     14221  TIP3      H1             33.5427094280       33.2895075841        5.0035336648  W2        14848           0.0000000000
     42663     14221  TIP3      H2             33.6980094280       34.7953075841        4.9853636648  W2        14848           0.0000000000
     42664     14222  TIP3      OH2            19.3841994280       18.0329375841       17.3083436648  W2        14849           0.0000000000
     42665     14222  TIP3      H1             19.0180194280       17.2671975841       17.7508136648  W2        14849           0.0000000000
     42666     14222  TIP3      H2             20.2970494280       18.0619575841       17.5948536648  W2        14849           0.0000000000
     42667     14223  TIP3      OH2            19.9818094280       34.1848575841        1.5170536648  W2        14851           0.0000000000
     42668     14223  TIP3      H1             19.7142694280       34.4711475841        2.3903636648  W2        14851           0.0000000000
     42669     14223  TIP3      H2             20.7530694280       33.6387775841        1.6693036648  W2        14851           0.0000000000
     42670     14224  TIP3      OH2            32.9546194280       32.7885375841       17.7187536648  W2        14853           0.0000000000
     42671     14224  TIP3      H1             32.1728094280       32.6023375841       17.1988136648  W2        14853           0.0000000000
     42672     14224  TIP3      H2             32.8826094280       33.7179675841       17.9360036648  W2        14853           0.0000000000
     42673     14225  TIP3      OH2            47.3606594280       26.6749775841        7.7494736648  W2        14854           0.0000000000
     42674     14225  TIP3      H1             47.4497694280       27.6187975841        7.6171836648  W2        14854           0.0000000000
     42675     14225  TIP3      H2             46.7224194280       26.3996175841        7.0914136648  W2        14854           0.0000000000
     42676     14226  TIP3      OH2            46.2937894280       25.9300475841       11.1682936648  W2        14855           0.0000000000
     42677     14226  TIP3      H1             46.2555394280       25.2836775841       11.8732536648  W2        14855           0.0000000000
     42678     14226  TIP3      H2             45.9714394280       25.4634875841       10.3971636648  W2        14855           0.0000000000
     42679     14227  TIP3      OH2            38.6622894280       25.5442575841       12.7612836648  W2        14856           0.0000000000
     42680     14227  TIP3      H1             38.7034994280       24.9185875841       13.4845236648  W2        14856           0.0000000000
     42681     14227  TIP3      H2             39.3650594280       26.1681175841       12.9433236648  W2        14856           0.0000000000
     42682     14228  TIP3      OH2            49.9998094280       28.8690875841        9.4698036648  W2        14857           0.0000000000
     42683     14228  TIP3      H1             49.5590794280       28.1486875841        9.9203636648  W2        14857           0.0000000000
     42684     14228  TIP3      H2             49.9867794280       29.5898075841       10.0995736648  W2        14857           0.0000000000
     42685     14229  TIP3      OH2            39.5855994280       29.9941475841       11.2961936648  W2        14858           0.0000000000
     42686     14229  TIP3      H1             39.2161194280       29.1921975841       10.9266236648  W2        14858           0.0000000000
     42687     14229  TIP3      H2             40.5267094280       29.8256375841       11.3425336648  W2        14858           0.0000000000
     42688     14230  TIP3      OH2            36.1956494280       23.6544075841        6.6890736648  W2        14859           0.0000000000
     42689     14230  TIP3      H1             35.7479894280       24.5002775841        6.6707236648  W2        14859           0.0000000000
     42690     14230  TIP3      H2             35.6347694280       23.0748275841        6.1735836648  W2        14859           0.0000000000
     42691     14231  TIP3      OH2            36.9062594280       25.8163675841        8.8148736648  W2        14860           0.0000000000
     42692     14231  TIP3      H1             37.1196094280       25.0465275841        9.3421736648  W2        14860           0.0000000000
     42693     14231  TIP3      H2             37.6440194280       25.9060375841        8.2116336648  W2        14860           0.0000000000
     42694     14232  TIP3      OH2            47.1113594280       33.9732575841        9.6818436648  W2        14861           0.0000000000
     42695     14232  TIP3      H1             47.7309994280       33.2967275841        9.4087636648  W2        14861           0.0000000000
     42696     14232  TIP3      H2             46.9030994280       33.7553375841       10.5903336648  W2        14861           0.0000000000
     42697     14233  TIP3      OH2            44.6832294280       28.3621875841       11.5743936648  W2        14862           0.0000000000
     42698     14233  TIP3      H1             44.9870194280       27.6763275841       10.9798036648  W2        14862           0.0000000000
     42699     14233  TIP3      H2             45.4046294280       28.4810575841       12.1921936648  W2        14862           0.0000000000
     42700     14234  TIP3      OH2            53.3462094280       19.9637175841       12.4350136648  W2        14863           0.0000000000
     42701     14234  TIP3      H1             53.3954294280       20.5738375841       13.1709236648  W2        14863           0.0000000000
     42702     14234  TIP3      H2             53.7717194280       20.4248075841       11.7121236648  W2        14863           0.0000000000
     42703     14235  TIP3      OH2            47.8239294280       22.7564275841       11.9018736648  W2        14864           0.0000000000
     42704     14235  TIP3      H1             47.9665194280       21.8101275841       11.9220336648  W2        14864           0.0000000000
     42705     14235  TIP3      H2             47.7178294280       22.9634075841       10.9733636648  W2        14864           0.0000000000
     42706     14236  TIP3      OH2            40.9787594280       20.8580675841        9.1743536648  W2        14865           0.0000000000
     42707     14236  TIP3      H1             41.0218694280       21.7179175841        8.7559836648  W2        14865           0.0000000000
     42708     14236  TIP3      H2             40.5211694280       20.3055375841        8.5406736648  W2        14865           0.0000000000
     42709     14237  TIP3      OH2            48.7010294280       20.9886275841        7.5751836648  W2        14866           0.0000000000
     42710     14237  TIP3      H1             49.3474594280       20.6599475841        8.1999436648  W2        14866           0.0000000000
     42711     14237  TIP3      H2             49.2109694280       21.5065275841        6.9523236648  W2        14866           0.0000000000
     42712     14238  TIP3      OH2            37.5989094280       23.2546475841        9.9364936648  W2        14867           0.0000000000
     42713     14238  TIP3      H1             38.2525694280       22.7048175841       10.3685036648  W2        14867           0.0000000000
     42714     14238  TIP3      H2             37.6228394280       22.9805475841        9.0196936648  W2        14867           0.0000000000
     42715     14239  TIP3      OH2            42.7553594280       24.8047775841        9.1516436648  W2        14868           0.0000000000
     42716     14239  TIP3      H1             43.3714594280       24.2783175841        9.6610436648  W2        14868           0.0000000000
     42717     14239  TIP3      H2             42.1692394280       24.1646475841        8.7480036648  W2        14868           0.0000000000
     42718     14240  TIP3      OH2            53.7376694280       21.4416375841       14.6709936648  W2        14869           0.0000000000
     42719     14240  TIP3      H1             53.0491294280       22.0997075841       14.5756536648  W2        14869           0.0000000000
     42720     14240  TIP3      H2             53.7531294280       21.2444275841       15.6075336648  W2        14869           0.0000000000
     42721     14241  TIP3      OH2            39.7889494280       19.7759075841       13.2484336648  W2        14870           0.0000000000
     42722     14241  TIP3      H1             39.5701194280       20.3059675841       12.4820336648  W2        14870           0.0000000000
     42723     14241  TIP3      H2             39.1210394280       20.0024575841       13.8955736648  W2        14870           0.0000000000
     42724     14242  TIP3      OH2            47.1579294280       29.2760175841        6.7923436648  W2        14871           0.0000000000
     42725     14242  TIP3      H1             46.8624394280       28.9532475841        5.9410336648  W2        14871           0.0000000000
     42726     14242  TIP3      H2             46.8337094280       30.1756875841        6.8336036648  W2        14871           0.0000000000
     42727     14243  TIP3      OH2            42.3580894280       27.4514775841       13.5358036648  W2        14872           0.0000000000
     42728     14243  TIP3      H1             41.6179994280       28.0496275841       13.6393236648  W2        14872           0.0000000000
     42729     14243  TIP3      H2             43.0720394280       28.0054375841       13.2201636648  W2        14872           0.0000000000
     42730     14244  TIP3      OH2            50.4648694280       20.2795575841        9.5557736648  W2        14873           0.0000000000
     42731     14244  TIP3      H1             50.2496694280       19.5138975841       10.0883736648  W2        14873           0.0000000000
     42732     14244  TIP3      H2             51.1206094280       20.7520175841       10.0686236648  W2        14873           0.0000000000
     42733     14245  TIP3      OH2            39.3826794280       21.6680875841       11.2006536648  W2        14874           0.0000000000
     42734     14245  TIP3      H1             39.9963094280       22.3008475841       11.5738936648  W2        14874           0.0000000000
     42735     14245  TIP3      H2             39.8947494280       21.1955875841       10.5443436648  W2        14874           0.0000000000
     42736     14246  TIP3      OH2            40.7655194280       29.4157775841       14.3229536648  W2        14875           0.0000000000
     42737     14246  TIP3      H1             40.7602794280       30.2951275841       13.9448836648  W2        14875           0.0000000000
     42738     14246  TIP3      H2             39.9119294280       29.3321875841       14.7479436648  W2        14875           0.0000000000
     42739     14247  TIP3      OH2            36.8866094280       29.0865675841        5.1048836648  W2        14876           0.0000000000
     42740     14247  TIP3      H1             36.6146994280       29.3156675841        4.2161736648  W2        14876           0.0000000000
     42741     14247  TIP3      H2             36.9321794280       29.9244475841        5.5654136648  W2        14876           0.0000000000
     42742     14248  TIP3      OH2            50.5115794280       30.7081575841       11.8177336648  W2        14877           0.0000000000
     42743     14248  TIP3      H1             49.5699494280       30.7665475841       11.9794236648  W2        14877           0.0000000000
     42744     14248  TIP3      H2             50.7881894280       31.6142075841       11.6807036648  W2        14877           0.0000000000
     42745     14249  TIP3      OH2            50.8122794280       18.9946875841       13.2351236648  W2        14878           0.0000000000
     42746     14249  TIP3      H1             50.0761994280       19.6053975841       13.1972536648  W2        14878           0.0000000000
     42747     14249  TIP3      H2             51.4956794280       19.4095875841       12.7087636648  W2        14878           0.0000000000
     42748     14250  TIP3      OH2            43.8154194280       17.0814175841       10.7009236648  W2        14879           0.0000000000
     42749     14250  TIP3      H1             43.6978394280       16.1330175841       10.6467536648  W2        14879           0.0000000000
     42750     14250  TIP3      H2             42.9604294280       17.4140275841       10.9740336648  W2        14879           0.0000000000
     42751     14251  TIP3      OH2            48.7636994280       32.4895075841        8.4428936648  W2        14880           0.0000000000
     42752     14251  TIP3      H1             49.1889294280       31.7822975841        7.9578536648  W2        14880           0.0000000000
     42753     14251  TIP3      H2             49.0806994280       33.2907775841        8.0261136648  W2        14880           0.0000000000
     42754     14252  TIP3      OH2            49.9233494280       30.3903575841        6.9515536648  W2        14881           0.0000000000
     42755     14252  TIP3      H1             49.6658294280       29.7003675841        6.3401436648  W2        14881           0.0000000000
     42756     14252  TIP3      H2             49.9944294280       29.9474775841        7.7971436648  W2        14881           0.0000000000
     42757     14253  TIP3      OH2            51.6093694280       28.9570275841       15.4289036648  W2        14882           0.0000000000
     42758     14253  TIP3      H1             51.7489994280       28.3652775841       14.6896036648  W2        14882           0.0000000000
     42759     14253  TIP3      H2             51.7766494280       29.8296175841       15.0727836648  W2        14882           0.0000000000
     42760     14254  TIP3      OH2            46.0819094280       25.9189775841        5.2015036648  W2        14883           0.0000000000
     42761     14254  TIP3      H1             45.3704594280       26.4539475841        4.8495536648  W2        14883           0.0000000000
     42762     14254  TIP3      H2             46.7728694280       25.9741875841        4.5413936648  W2        14883           0.0000000000
     42763     14255  TIP3      OH2            46.1358294280       24.3764075841        2.2400036648  W2        14884           0.0000000000
     42764     14255  TIP3      H1             46.8368194280       24.3990975841        2.8914036648  W2        14884           0.0000000000
     42765     14255  TIP3      H2             46.4381194280       23.7483775841        1.5839336648  W2        14884           0.0000000000
     42766     14256  TIP3      OH2            53.4512994280       25.2968275841       13.4949436648  W2        14885           0.0000000000
     42767     14256  TIP3      H1             52.7987094280       25.9913875841       13.5840336648  W2        14885           0.0000000000
     42768     14256  TIP3      H2             53.9163294280       25.5069175841       12.6851036648  W2        14885           0.0000000000
     42769     14257  TIP3      OH2            49.4876794280       26.1283075841        6.1530936648  W2        14886           0.0000000000
     42770     14257  TIP3      H1             48.7557794280       26.3566775841        6.7261536648  W2        14886           0.0000000000
     42771     14257  TIP3      H2             49.9348994280       25.4145775841        6.6078436648  W2        14886           0.0000000000
     42772     14258  TIP3      OH2            49.3850294280       24.3025675841       15.2207936648  W2        14887           0.0000000000
     42773     14258  TIP3      H1             49.4649394280       25.0660075841       15.7926436648  W2        14887           0.0000000000
     42774     14258  TIP3      H2             48.7837994280       24.5818075841       14.5303036648  W2        14887           0.0000000000
     42775     14259  TIP3      OH2            41.1330494280       26.7589275841        8.0355936648  W2        14888           0.0000000000
     42776     14259  TIP3      H1             40.8025694280       26.3882675841        7.2172936648  W2        14888           0.0000000000
     42777     14259  TIP3      H2             41.7214594280       26.0883275841        8.3824236648  W2        14888           0.0000000000
     42778     14260  TIP3      OH2            42.4997994280       30.1869875841       10.7168136648  W2        14889           0.0000000000
     42779     14260  TIP3      H1             42.4049294280       29.6082975841        9.9602736648  W2        14889           0.0000000000
     42780     14260  TIP3      H2             43.2291594280       29.8155575841       11.2130936648  W2        14889           0.0000000000
     42781     14261  TIP3      OH2            41.4995994280       25.5274875841       11.6690936648  W2        14890           0.0000000000
     42782     14261  TIP3      H1             42.0648494280       25.6489075841       10.9062136648  W2        14890           0.0000000000
     42783     14261  TIP3      H2             41.8184894280       26.1649875841       12.3079436648  W2        14890           0.0000000000
     42784     14262  TIP3      OH2            47.8088194280       31.0306775841       12.4031436648  W2        14891           0.0000000000
     42785     14262  TIP3      H1             47.5684794280       31.6929875841       13.0510636648  W2        14891           0.0000000000
     42786     14262  TIP3      H2             47.6106394280       30.1961975841       12.8281036648  W2        14891           0.0000000000
     42787     14263  TIP3      OH2            42.3796694280       29.9267575841       16.3862836648  W2        14892           0.0000000000
     42788     14263  TIP3      H1             42.0684194280       30.7090775841       16.8416036648  W2        14892           0.0000000000
     42789     14263  TIP3      H2             41.7296894280       29.7736675841       15.7004836648  W2        14892           0.0000000000
     42790     14264  TIP3      OH2            48.3586294280       25.2905975841        3.8382136648  W2        14893           0.0000000000
     42791     14264  TIP3      H1             48.9381794280       25.4406275841        4.5851036648  W2        14893           0.0000000000
     42792     14264  TIP3      H2             48.7726294280       25.7613375841        3.1148536648  W2        14893           0.0000000000
     42793     14265  TIP3      OH2            39.2996594280       26.1248675841       15.6148536648  W2        14894           0.0000000000
     42794     14265  TIP3      H1             39.3699794280       26.7755475841       16.3133536648  W2        14894           0.0000000000
     42795     14265  TIP3      H2             38.4088794280       26.2276175841       15.2799436648  W2        14894           0.0000000000
     42796     14266  TIP3      OH2            46.0851194280       32.0274475841        7.2735236648  W2        14895           0.0000000000
     42797     14266  TIP3      H1             46.5588794280       32.3230775841        8.0509436648  W2        14895           0.0000000000
     42798     14266  TIP3      H2             45.5220494280       32.7656075841        7.0404836648  W2        14895           0.0000000000
     42799     14267  TIP3      OH2            40.6192594280       31.9982575841       17.1496636648  W2        14896           0.0000000000
     42800     14267  TIP3      H1             40.6267894280       31.8622275841       16.2022136648  W2        14896           0.0000000000
     42801     14267  TIP3      H2             39.7032994280       31.8810675841       17.4016636648  W2        14896           0.0000000000
     42802     14268  TIP3      OH2            52.0574694280       17.0406375841        3.6511836648  W2        14897           0.0000000000
     42803     14268  TIP3      H1             51.1575394280       17.1795375841        3.9462436648  W2        14897           0.0000000000
     42804     14268  TIP3      H2             52.3093094280       17.8720975841        3.2493536648  W2        14897           0.0000000000
     42805     14269  TIP3      OH2            40.1233194280       25.8283575841        5.6248736648  W2        14898           0.0000000000
     42806     14269  TIP3      H1             39.8314494280       26.5965275841        5.1340036648  W2        14898           0.0000000000
     42807     14269  TIP3      H2             39.4488394280       25.1689775841        5.4620136648  W2        14898           0.0000000000
     42808     14270  TIP3      OH2            53.2466094280       31.4068775841        2.0275736648  W2        14899           0.0000000000
     42809     14270  TIP3      H1             53.3199594280       32.3458975841        2.1981036648  W2        14899           0.0000000000
     42810     14270  TIP3      H2             54.1521194280       31.1017375841        1.9713036648  W2        14899           0.0000000000
     42811     14271  TIP3      OH2            36.2163294280       28.1912775841       14.4398536648  W2        14900           0.0000000000
     42812     14271  TIP3      H1             35.7151694280       28.1632175841       13.6248236648  W2        14900           0.0000000000
     42813     14271  TIP3      H2             36.2216994280       27.2855975841       14.7495836648  W2        14900           0.0000000000
     42814     14272  TIP3      OH2            35.9665994280       30.9716575841       11.3238736648  W2        14901           0.0000000000
     42815     14272  TIP3      H1             36.9126594280       30.8273575841       11.3048236648  W2        14901           0.0000000000
     42816     14272  TIP3      H2             35.8542294280       31.7559375841       11.8609936648  W2        14901           0.0000000000
     42817     14273  TIP3      OH2            54.1644494280       31.6376275841       17.0062436648  W2        14902           0.0000000000
     42818     14273  TIP3      H1             54.1151294280       30.6824375841       16.9690036648  W2        14902           0.0000000000
     42819     14273  TIP3      H2             53.3376794280       31.9051575841       17.4076236648  W2        14902           0.0000000000
     42820     14274  TIP3      OH2            45.1428494280       31.2115475841       15.8823836648  W2        14903           0.0000000000
     42821     14274  TIP3      H1             45.2303094280       32.0380075841       16.3572936648  W2        14903           0.0000000000
     42822     14274  TIP3      H2             44.2793594280       30.8819275841       16.1313136648  W2        14903           0.0000000000
     42823     14275  TIP3      OH2            45.5574294280       34.9839175841        5.6884436648  W2        14904           0.0000000000
     42824     14275  TIP3      H1             45.4820294280       34.8626375841        4.7419636648  W2        14904           0.0000000000
     42825     14275  TIP3      H2             45.5902994280       35.9331875841        5.8069036648  W2        14904           0.0000000000
     42826     14276  TIP3      OH2            39.2108094280       33.7726175841        7.4693436648  W2        14905           0.0000000000
     42827     14276  TIP3      H1             39.3628494280       33.4246575841        8.3479936648  W2        14905           0.0000000000
     42828     14276  TIP3      H2             38.3598494280       33.4163475841        7.2140636648  W2        14905           0.0000000000
     42829     14277  TIP3      OH2            48.6590294280       34.1379375841        2.6906836648  W2        14906           0.0000000000
     42830     14277  TIP3      H1             49.0338694280       33.3935475841        2.2199436648  W2        14906           0.0000000000
     42831     14277  TIP3      H2             48.6633994280       33.8679975841        3.6090136648  W2        14906           0.0000000000
     42832     14278  TIP3      OH2            48.3278394280       34.0636475841        5.4399036648  W2        14907           0.0000000000
     42833     14278  TIP3      H1             47.3928194280       34.1638375841        5.6186036648  W2        14907           0.0000000000
     42834     14278  TIP3      H2             48.6080294280       33.3542475841        6.0182236648  W2        14907           0.0000000000
     42835     14279  TIP3      OH2            51.3164294280       23.1308775841       17.4864636648  W2        14908           0.0000000000
     42836     14279  TIP3      H1             50.9091094280       23.6114375841       16.7657936648  W2        14908           0.0000000000
     42837     14279  TIP3      H2             51.3569994280       22.2254775841       17.1785436648  W2        14908           0.0000000000
     42838     14280  TIP3      OH2            38.4653794280       29.5148175841       15.4831336648  W2        14909           0.0000000000
     42839     14280  TIP3      H1             38.6815094280       29.1533775841       16.3427136648  W2        14909           0.0000000000
     42840     14280  TIP3      H2             37.6098494280       29.1401975841       15.2734836648  W2        14909           0.0000000000
     42841     14281  TIP3      OH2            41.0841794280       17.9848675841       11.4785536648  W2        14910           0.0000000000
     42842     14281  TIP3      H1             40.2225494280       17.8976875841       11.0708436648  W2        14910           0.0000000000
     42843     14281  TIP3      H2             41.0617494280       18.8408775841       11.9063136648  W2        14910           0.0000000000
     42844     14282  TIP3      OH2            45.7469594280       17.7069075841       14.8532536648  W2        14911           0.0000000000
     42845     14282  TIP3      H1             46.1672694280       17.2916175841       15.6063136648  W2        14911           0.0000000000
     42846     14282  TIP3      H2             44.8139194280       17.5282375841       14.9704536648  W2        14911           0.0000000000
     42847     14283  TIP3      OH2            49.0734494280       21.4624275841       15.7067036648  W2        14912           0.0000000000
     42848     14283  TIP3      H1             48.5593994280       21.3366475841       16.5043036648  W2        14912           0.0000000000
     42849     14283  TIP3      H2             48.9179194280       22.3747375841       15.4623236648  W2        14912           0.0000000000
     42850     14284  TIP3      OH2            49.8359394280       26.3234275841        1.4680036648  W2        14913           0.0000000000
     42851     14284  TIP3      H1             49.8780194280       26.1008175841        0.5380036648  W2        14913           0.0000000000
     42852     14284  TIP3      H2             50.6851494280       26.7221375841        1.6579936648  W2        14913           0.0000000000
     42853     14285  TIP3      OH2            45.4086894280       20.1992475841        2.1383336648  W2        14914           0.0000000000
     42854     14285  TIP3      H1             45.1551694280       20.2184075841        3.0611436648  W2        14914           0.0000000000
     42855     14285  TIP3      H2             45.1518994280       19.3277875841        1.8369536648  W2        14914           0.0000000000
     42856     14286  TIP3      OH2            41.1751894280       22.9503175841       12.5735736648  W2        14915           0.0000000000
     42857     14286  TIP3      H1             40.5333994280       22.9100475841       13.2825836648  W2        14915           0.0000000000
     42858     14286  TIP3      H2             41.2123894280       23.8767875841       12.3358736648  W2        14915           0.0000000000
     42859     14287  TIP3      OH2            41.1720994280       23.1713275841        7.4855736648  W2        14916           0.0000000000
     42860     14287  TIP3      H1             40.2793894280       22.8309375841        7.4269536648  W2        14916           0.0000000000
     42861     14287  TIP3      H2             41.6227594280       22.7944175841        6.7298936648  W2        14916           0.0000000000
     42862     14288  TIP3      OH2            46.7076494280       23.5873575841        6.3026536648  W2        14917           0.0000000000
     42863     14288  TIP3      H1             46.2986794280       24.4022175841        6.0111336648  W2        14917           0.0000000000
     42864     14288  TIP3      H2             47.4282694280       23.4473675841        5.6883636648  W2        14917           0.0000000000
     42865     14289  TIP3      OH2            45.8098094280       23.7629975841       17.7907236648  W2        14918           0.0000000000
     42866     14289  TIP3      H1             45.2471894280       23.0581575841       18.1115036648  W2        14918           0.0000000000
     42867     14289  TIP3      H2             46.6361494280       23.6421875841       18.2584836648  W2        14918           0.0000000000
     42868     14290  TIP3      OH2            47.7124194280       23.0333975841        9.1166236648  W2        14919           0.0000000000
     42869     14290  TIP3      H1             47.5168694280       23.6390775841        8.4016836648  W2        14919           0.0000000000
     42870     14290  TIP3      H2             47.8936794280       22.1999175841        8.6822536648  W2        14919           0.0000000000
     42871     14291  TIP3      OH2            38.9252394280       23.2706675841       14.4407736648  W2        14920           0.0000000000
     42872     14291  TIP3      H1             38.8871794280       23.6708275841       15.3094836648  W2        14920           0.0000000000
     42873     14291  TIP3      H2             38.4343494280       22.4539075841       14.5310636648  W2        14920           0.0000000000
     42874     14292  TIP3      OH2            42.2909794280       20.6448975841        1.2393736648  W2        14921           0.0000000000
     42875     14292  TIP3      H1             41.8600494280       20.1999075841        1.9691136648  W2        14921           0.0000000000
     42876     14292  TIP3      H2             41.5728494280       21.0165275841        0.7271236648  W2        14921           0.0000000000
     42877     14293  TIP3      OH2            35.5333194280       20.3868475841        8.2912436648  W2        14922           0.0000000000
     42878     14293  TIP3      H1             36.1640894280       20.3580575841        9.0106336648  W2        14922           0.0000000000
     42879     14293  TIP3      H2             35.9827494280       19.9617175841        7.5608336648  W2        14922           0.0000000000
     42880     14294  TIP3      OH2            36.8075294280       21.1330475841        3.7152836648  W2        14923           0.0000000000
     42881     14294  TIP3      H1             37.2816994280       21.7240375841        3.1303736648  W2        14923           0.0000000000
     42882     14294  TIP3      H2             36.0901694280       21.6633375841        4.0622936648  W2        14923           0.0000000000
     42883     14295  TIP3      OH2            46.9763394280       24.6715275841       13.7878636648  W2        14924           0.0000000000
     42884     14295  TIP3      H1             47.2998194280       24.0404975841       13.1449136648  W2        14924           0.0000000000
     42885     14295  TIP3      H2             46.5362694280       24.1367475841       14.4486036648  W2        14924           0.0000000000
     42886     14296  TIP3      OH2            43.7536294280       20.5990775841        8.5719836648  W2        14925           0.0000000000
     42887     14296  TIP3      H1             42.8427394280       20.6557575841        8.8605836648  W2        14925           0.0000000000
     42888     14296  TIP3      H2             44.2589194280       20.5386275841        9.3827036648  W2        14925           0.0000000000
     42889     14297  TIP3      OH2            38.5819694280       22.2277075841        7.3987436648  W2        14926           0.0000000000
     42890     14297  TIP3      H1             37.6927694280       22.3272575841        7.0587036648  W2        14926           0.0000000000
     42891     14297  TIP3      H2             38.8784594280       21.3860075841        7.0525336648  W2        14926           0.0000000000
     42892     14298  TIP3      OH2            42.2351494280       22.2279675841        5.0552036648  W2        14927           0.0000000000
     42893     14298  TIP3      H1             43.1666994280       22.3569675841        5.2335136648  W2        14927           0.0000000000
     42894     14298  TIP3      H2             42.0201794280       22.8973975841        4.4056736648  W2        14927           0.0000000000
     42895     14299  TIP3      OH2            48.1588194280       19.8337075841       11.8361636648  W2        14928           0.0000000000
     42896     14299  TIP3      H1             47.4819794280       19.9650175841       12.5001336648  W2        14928           0.0000000000
     42897     14299  TIP3      H2             47.6733094280       19.6786575841       11.0259336648  W2        14928           0.0000000000
     42898     14300  TIP3      OH2            40.9091694280       23.4221875841        2.6218136648  W2        14929           0.0000000000
     42899     14300  TIP3      H1             40.3666794280       23.0425675841        1.9305736648  W2        14929           0.0000000000
     42900     14300  TIP3      H2             41.7426594280       23.6166575841        2.1932236648  W2        14929           0.0000000000
     42901     14301  TIP3      OH2            39.0443094280       27.9793775841       17.7209736648  W2        14931           0.0000000000
     42902     14301  TIP3      H1             39.7765494280       28.2339675841       18.2824236648  W2        14931           0.0000000000
     42903     14301  TIP3      H2             38.2641794280       28.1839175841       18.2365136648  W2        14931           0.0000000000
     42904     14302  TIP3      OH2            45.0735994280       23.3863775841       10.4589436648  W2        14932           0.0000000000
     42905     14302  TIP3      H1             45.6379394280       22.8400375841        9.9119036648  W2        14932           0.0000000000
     42906     14302  TIP3      H2             44.9259394280       22.8645675841       11.2477036648  W2        14932           0.0000000000
     42907     14303  TIP3      OH2            40.0755694280       19.5229875841        6.8774236648  W2        14933           0.0000000000
     42908     14303  TIP3      H1             39.7585194280       18.6205175841        6.8419636648  W2        14933           0.0000000000
     42909     14303  TIP3      H2             40.8569794280       19.5247275841        6.3245836648  W2        14933           0.0000000000
     42910     14304  TIP3      OH2            43.7001894280       21.7749875841       12.8729836648  W2        14934           0.0000000000
     42911     14304  TIP3      H1             42.8647194280       22.2289375841       12.9832236648  W2        14934           0.0000000000
     42912     14304  TIP3      H2             44.2242494280       22.0508375841       13.6249736648  W2        14934           0.0000000000
     42913     14305  TIP3      OH2            44.2444494280       27.9877575841        4.5576236648  W2        14935           0.0000000000
     42914     14305  TIP3      H1             43.4995494280       27.4802875841        4.2354136648  W2        14935           0.0000000000
     42915     14305  TIP3      H2             44.1101694280       28.0365575841        5.5041036648  W2        14935           0.0000000000
     42916     14306  TIP3      OH2            51.3943394280       27.1205775841       13.3443836648  W2        14936           0.0000000000
     42917     14306  TIP3      H1             52.0362194280       27.5772075841       12.8006036648  W2        14936           0.0000000000
     42918     14306  TIP3      H2             50.5640294280       27.2338175841       12.8817936648  W2        14936           0.0000000000
     42919     14307  TIP3      OH2            48.1421294280       20.8017475841        2.7568836648  W2        14937           0.0000000000
     42920     14307  TIP3      H1             47.2035494280       20.9133075841        2.6057636648  W2        14937           0.0000000000
     42921     14307  TIP3      H2             48.4393394280       21.6584375841        3.0634536648  W2        14937           0.0000000000
     42922     14308  TIP3      OH2            45.7636594280       28.1720875841       15.7945336648  W2        14938           0.0000000000
     42923     14308  TIP3      H1             45.4182694280       27.7903275841       16.6014936648  W2        14938           0.0000000000
     42924     14308  TIP3      H2             45.5636694280       29.1054475841       15.8658236648  W2        14938           0.0000000000
     42925     14309  TIP3      OH2            48.8604794280       22.6690175841        4.4176236648  W2        14939           0.0000000000
     42926     14309  TIP3      H1             49.7523794280       22.5315175841        4.7367436648  W2        14939           0.0000000000
     42927     14309  TIP3      H2             48.9168394280       23.4596275841        3.8809736648  W2        14939           0.0000000000
     42928     14310  TIP3      OH2            39.3692794280       27.2827575841       10.3274136648  W2        14940           0.0000000000
     42929     14310  TIP3      H1             40.1139994280       27.2803275841        9.7260636648  W2        14940           0.0000000000
     42930     14310  TIP3      H2             39.4469394280       26.4591375841       10.8089236648  W2        14940           0.0000000000
     42931     14311  TIP3      OH2            46.3698594280       29.4461875841        3.5830836648  W2        14941           0.0000000000
     42932     14311  TIP3      H1             46.0746994280       30.2729775841        3.9645636648  W2        14941           0.0000000000
     42933     14311  TIP3      H2             45.6668594280       28.8268775841        3.7792236648  W2        14941           0.0000000000
     42934     14312  TIP3      OH2            36.3772494280       25.7434475841       15.6422636648  W2        14942           0.0000000000
     42935     14312  TIP3      H1             36.6001094280       25.3254075841       16.4740136648  W2        14942           0.0000000000
     42936     14312  TIP3      H2             35.7752594280       25.1309475841       15.2195436648  W2        14942           0.0000000000
     42937     14313  TIP3      OH2            48.0140194280       30.6336375841       15.7450336648  W2        14944           0.0000000000
     42938     14313  TIP3      H1             47.1134494280       30.8168975841       15.4774236648  W2        14944           0.0000000000
     42939     14313  TIP3      H2             48.0481294280       30.8925675841       16.6659136648  W2        14944           0.0000000000
     42940     14314  TIP3      OH2            53.7453494280       22.8784275841        4.1122936648  W2        14945           0.0000000000
     42941     14314  TIP3      H1             53.1909794280       22.4822275841        3.4400436648  W2        14945           0.0000000000
     42942     14314  TIP3      H2             53.8457094280       23.7889475841        3.8346236648  W2        14945           0.0000000000
     42943     14315  TIP3      OH2            53.7085494280       28.6785975841       16.9494436648  W2        14946           0.0000000000
     42944     14315  TIP3      H1             52.8573994280       28.9169775841       16.5820836648  W2        14946           0.0000000000
     42945     14315  TIP3      H2             54.2988894280       28.6619175841       16.1961536648  W2        14946           0.0000000000
     42946     14316  TIP3      OH2            52.0405194280       31.6644675841        4.5775036648  W2        14947           0.0000000000
     42947     14316  TIP3      H1             51.6676294280       30.8388475841        4.8865636648  W2        14947           0.0000000000
     42948     14316  TIP3      H2             52.3178694280       31.4814075841        3.6798436648  W2        14947           0.0000000000
     42949     14317  TIP3      OH2            49.2009094280       26.4724175841       11.5986936648  W2        14948           0.0000000000
     42950     14317  TIP3      H1             48.2725994280       26.2406075841       11.5716236648  W2        14948           0.0000000000
     42951     14317  TIP3      H2             49.6520194280       25.6953975841       11.2685736648  W2        14948           0.0000000000
     42952     14318  TIP3      OH2            41.7442194280       30.8005775841        7.7315636648  W2        14949           0.0000000000
     42953     14318  TIP3      H1             42.2714394280       31.5740175841        7.5314436648  W2        14949           0.0000000000
     42954     14318  TIP3      H2             40.8640694280       31.0254975841        7.4299636648  W2        14949           0.0000000000
     42955     14319  TIP3      OH2            37.4989894280       25.6629875841        2.3188036648  W2        14950           0.0000000000
     42956     14319  TIP3      H1             38.1149794280       26.2897075841        2.6982836648  W2        14950           0.0000000000
     42957     14319  TIP3      H2             36.6372494280       25.9789675841        2.5904536648  W2        14950           0.0000000000
     42958     14320  TIP3      OH2            43.1714494280       28.4635675841        7.3079936648  W2        14951           0.0000000000
     42959     14320  TIP3      H1             42.9304494280       29.3890075841        7.3495236648  W2        14951           0.0000000000
     42960     14320  TIP3      H2             42.4308094280       28.0046975841        7.7043836648  W2        14951           0.0000000000
     42961     14321  TIP3      OH2            43.6861094280       32.6129275841       13.6231036648  W2        14952           0.0000000000
     42962     14321  TIP3      H1             44.0485794280       33.4674875841       13.3895436648  W2        14952           0.0000000000
     42963     14321  TIP3      H2             44.2176294280       32.3210875841       14.3637336648  W2        14952           0.0000000000
     42964     14322  TIP3      OH2            41.8545294280       33.4853275841        6.8532136648  W2        14953           0.0000000000
     42965     14322  TIP3      H1             40.9045794280       33.5910675841        6.9045436648  W2        14953           0.0000000000
     42966     14322  TIP3      H2             42.2063394280       34.3060675841        7.1979636648  W2        14953           0.0000000000
     42967     14323  TIP3      OH2            47.2301894280       28.7119975841       13.3236636648  W2        14954           0.0000000000
     42968     14323  TIP3      H1             46.8043194280       28.4841675841       14.1500636648  W2        14954           0.0000000000
     42969     14323  TIP3      H2             47.8107694280       27.9731775841       13.1411936648  W2        14954           0.0000000000
     42970     14324  TIP3      OH2            49.4330794280       29.6410475841        2.3975636648  W2        14955           0.0000000000
     42971     14324  TIP3      H1             49.7863894280       29.2610275841        3.2019136648  W2        14955           0.0000000000
     42972     14324  TIP3      H2             48.4844294280       29.5475275841        2.4844936648  W2        14955           0.0000000000
     42973     14325  TIP3      OH2            49.8886094280       33.2639475841       15.7931436648  W2        14956           0.0000000000
     42974     14325  TIP3      H1             49.2869294280       32.7082375841       15.2977736648  W2        14956           0.0000000000
     42975     14325  TIP3      H2             50.1699794280       33.9309275841       15.1668836648  W2        14956           0.0000000000
     42976     14326  TIP3      OH2            53.9365194280       34.1202975841        2.5985836648  W2        14957           0.0000000000
     42977     14326  TIP3      H1             54.6803094280       34.7063475841        2.4587436648  W2        14957           0.0000000000
     42978     14326  TIP3      H2             53.2423294280       34.6888775841        2.9318236648  W2        14957           0.0000000000
     42979     14327  TIP3      OH2            38.0111994280       20.4967175841       15.2004036648  W2        14958           0.0000000000
     42980     14327  TIP3      H1             37.1184294280       20.8352575841       15.1328036648  W2        14958           0.0000000000
     42981     14327  TIP3      H2             37.9124794280       19.6413275841       15.6184836648  W2        14958           0.0000000000
     42982     14328  TIP3      OH2            50.2990094280       28.3132475841        4.6243536648  W2        14959           0.0000000000
     42983     14328  TIP3      H1             50.0217694280       27.5851775841        5.1804636648  W2        14959           0.0000000000
     42984     14328  TIP3      H2             51.2263094280       28.4324475841        4.8296136648  W2        14959           0.0000000000
     42985     14329  TIP3      OH2            37.6623994280       32.3011575841       13.6353436648  W2        14960           0.0000000000
     42986     14329  TIP3      H1             37.8794294280       31.3693975841       13.6043136648  W2        14960           0.0000000000
     42987     14329  TIP3      H2             37.9087494280       32.5756575841       14.5186236648  W2        14960           0.0000000000
     42988     14330  TIP3      OH2            43.5238594280       30.7526575841        0.8445636648  W2        14961           0.0000000000
     42989     14330  TIP3      H1             43.7628394280       30.0044675841        0.2974536648  W2        14961           0.0000000000
     42990     14330  TIP3      H2             43.2549894280       30.3648275841        1.6773436648  W2        14961           0.0000000000
     42991     14331  TIP3      OH2            42.4609194280       30.3230375841        3.3008236648  W2        14962           0.0000000000
     42992     14331  TIP3      H1             42.6077194280       29.8030175841        4.0909136648  W2        14962           0.0000000000
     42993     14331  TIP3      H2             42.4580894280       31.2297975841        3.6074136648  W2        14962           0.0000000000
     42994     14332  TIP3      OH2            38.9140294280       27.5753675841        3.8113636648  W2        14963           0.0000000000
     42995     14332  TIP3      H1             38.2279594280       27.9276175841        4.3783336648  W2        14963           0.0000000000
     42996     14332  TIP3      H2             39.4368194280       28.3383275841        3.5647936648  W2        14963           0.0000000000
     42997     14333  TIP3      OH2            46.7455394280       20.2377475841       14.0902636648  W2        14964           0.0000000000
     42998     14333  TIP3      H1             47.4443294280       20.3116175841       14.7402336648  W2        14964           0.0000000000
     42999     14333  TIP3      H2             46.3646794280       19.3732475841       14.2445536648  W2        14964           0.0000000000
     43000     14334  TIP3      OH2            47.5300294280       19.8899175841        5.1874936648  W2        14965           0.0000000000
     43001     14334  TIP3      H1             47.7498594280       20.3614575841        4.3840336648  W2        14965           0.0000000000
     43002     14334  TIP3      H2             48.0884294280       20.2841775841        5.8575536648  W2        14965           0.0000000000
     43003     14335  TIP3      OH2            45.1986394280       32.0203975841        4.0502436648  W2        14966           0.0000000000
     43004     14335  TIP3      H1             44.3822494280       32.5173675841        4.1026736648  W2        14966           0.0000000000
     43005     14335  TIP3      H2             45.7282694280       32.4957475841        3.4101236648  W2        14966           0.0000000000
     43006     14336  TIP3      OH2            44.7300194280       21.6177975841        6.0223336648  W2        14967           0.0000000000
     43007     14336  TIP3      H1             45.5422794280       22.1221175841        6.0685036648  W2        14967           0.0000000000
     43008     14336  TIP3      H2             44.4853194280       21.4727675841        6.9362936648  W2        14967           0.0000000000
     43009     14337  TIP3      OH2            45.2656594280       22.6040675841       15.2069936648  W2        14968           0.0000000000
     43010     14337  TIP3      H1             45.3846894280       23.1776075841       15.9640336648  W2        14968           0.0000000000
     43011     14337  TIP3      H2             45.9211194280       21.9160075841       15.3217736648  W2        14968           0.0000000000
     43012     14338  TIP3      OH2            45.6136894280       18.6990975841        6.9604436648  W2        14969           0.0000000000
     43013     14338  TIP3      H1             45.2670394280       19.3161575841        7.6048736648  W2        14969           0.0000000000
     43014     14338  TIP3      H2             46.2723794280       19.1996675841        6.4789936648  W2        14969           0.0000000000
     43015     14339  TIP3      OH2            42.5369494280       33.0641175841        4.0319336648  W2        14970           0.0000000000
     43016     14339  TIP3      H1             42.6978194280       33.8638675841        3.5311936648  W2        14970           0.0000000000
     43017     14339  TIP3      H2             42.3397294280       33.3707175841        4.9169936648  W2        14970           0.0000000000
     43018     14340  TIP3      OH2            41.2713894280       19.7620375841        3.6476936648  W2        14971           0.0000000000
     43019     14340  TIP3      H1             41.1878694280       20.6503475841        3.9943336648  W2        14971           0.0000000000
     43020     14340  TIP3      H2             42.1614194280       19.4967075841        3.8793736648  W2        14971           0.0000000000
     43021     14341  TIP3      OH2            51.4702394280       20.5110975841       16.0419636648  W2        14972           0.0000000000
     43022     14341  TIP3      H1             50.5538194280       20.7732675841       15.9543336648  W2        14972           0.0000000000
     43023     14341  TIP3      H2             51.8057394280       20.5079975841       15.1454936648  W2        14972           0.0000000000
     43024     14342  TIP3      OH2            50.0723394280       24.2611975841       10.1376936648  W2        14973           0.0000000000
     43025     14342  TIP3      H1             49.2747794280       23.8462175841        9.8091936648  W2        14973           0.0000000000
     43026     14342  TIP3      H2             50.5174494280       23.5705675841       10.6287436648  W2        14973           0.0000000000
     43027     14343  TIP3      OH2            39.5299194280       30.1892575841        2.7081436648  W2        14974           0.0000000000
     43028     14343  TIP3      H1             40.1220694280       30.8887375841        2.9843836648  W2        14974           0.0000000000
     43029     14343  TIP3      H2             39.9892194280       29.7562075841        1.9886036648  W2        14974           0.0000000000
     43030     14344  TIP3      OH2            37.8458394280       22.8535575841        1.8240836648  W2        14975           0.0000000000
     43031     14344  TIP3      H1             37.8010994280       23.7928675841        2.0027836648  W2        14975           0.0000000000
     43032     14344  TIP3      H2             36.9581594280       22.6180475841        1.5542936648  W2        14975           0.0000000000
     43033     14345  TIP3      OH2            51.1587994280       33.5174475841       11.7600436648  W2        14976           0.0000000000
     43034     14345  TIP3      H1             51.0032294280       34.1958875841       11.1029736648  W2        14976           0.0000000000
     43035     14345  TIP3      H2             52.0914394280       33.5893775841       11.9631036648  W2        14976           0.0000000000
     43036     14346  TIP3      OH2            38.6540394280       17.6352175841       10.4971836648  W2        14977           0.0000000000
     43037     14346  TIP3      H1             38.4250194280       17.6944675841        9.5696836648  W2        14977           0.0000000000
     43038     14346  TIP3      H2             38.2113794280       16.8437675841       10.8035936648  W2        14977           0.0000000000
     43039     14347  TIP3      OH2            37.5843694280       31.5759275841        6.6577636648  W2        14978           0.0000000000
     43040     14347  TIP3      H1             36.7522294280       32.0481975841        6.6849036648  W2        14978           0.0000000000
     43041     14347  TIP3      H2             38.1301994280       32.0856875841        6.0590736648  W2        14978           0.0000000000
     43042     14348  TIP3      OH2            45.5620394280       32.6157975841        0.9831636648  W2        14981           0.0000000000
     43043     14348  TIP3      H1             44.9181394280       31.9846575841        1.3045336648  W2        14981           0.0000000000
     43044     14348  TIP3      H2             46.3238694280       32.0845975841        0.7515136648  W2        14981           0.0000000000
     43045     14349  TIP3      OH2            50.1663294280       32.4327875841        1.2169636648  W2        14983           0.0000000000
     43046     14349  TIP3      H1             50.4493694280       31.6383075841        1.6696536648  W2        14983           0.0000000000
     43047     14349  TIP3      H2             50.9061194280       32.6658875841        0.6560736648  W2        14983           0.0000000000
     43048     14350  TIP3      OH2            41.1210594280       28.3422775841        1.0744536648  W2        14985           0.0000000000
     43049     14350  TIP3      H1             41.1854694280       27.5482375841        1.6050936648  W2        14985           0.0000000000
     43050     14350  TIP3      H2             41.7739794280       28.2235575841        0.3846536648  W2        14985           0.0000000000
     43051     14351  TIP3      OH2            46.4733994280       29.3894475841        0.8102536648  W2        14987           0.0000000000
     43052     14351  TIP3      H1             46.2048094280       29.5696575841        1.7111436648  W2        14987           0.0000000000
     43053     14351  TIP3      H2             46.2669594280       28.4640675841        0.6788336648  W2        14987           0.0000000000
     43054     14352  TIP3      OH2            49.1698194280       27.8842475841       15.7578636648  W2        14988           0.0000000000
     43055     14352  TIP3      H1             49.9152994280       28.4726175841       15.6382636648  W2        14988           0.0000000000
     43056     14352  TIP3      H2             48.4124994280       28.4662175841       15.8211736648  W2        14988           0.0000000000
     43057     14353  TIP3      OH2            42.2704394280       26.3148975841        3.3802536648  W2        14990           0.0000000000
     43058     14353  TIP3      H1             41.8106394280       25.8307275841        4.0661036648  W2        14990           0.0000000000
     43059     14353  TIP3      H2             42.5253094280       25.6464375841        2.7443036648  W2        14990           0.0000000000
     43060     14354  TIP3      OH2            41.5593694280       24.2076075841       15.7362136648  W2        14991           0.0000000000
     43061     14354  TIP3      H1             40.9409794280       24.8822675841       16.0166836648  W2        14991           0.0000000000
     43062     14354  TIP3      H2             41.9034894280       24.5289975841       14.9028336648  W2        14991           0.0000000000
     43063     14355  TIP3      OH2            43.3414794280       24.5580775841        1.6425736648  W2        14992           0.0000000000
     43064     14355  TIP3      H1             43.1609794280       24.4031975841        0.7154036648  W2        14992           0.0000000000
     43065     14355  TIP3      H2             44.2915294280       24.6659475841        1.6873636648  W2        14992           0.0000000000
     43066     14356  TIP3      OH2            52.7313094280       26.9124975841        1.0883836648  W2        14994           0.0000000000
     43067     14356  TIP3      H1             52.4577894280       26.4880475841        0.2752136648  W2        14994           0.0000000000
     43068     14356  TIP3      H2             52.7707194280       27.8439475841        0.8714236648  W2        14994           0.0000000000
     43069     14357  TIP3      OH2            41.8987394280       21.5626875841       16.8185236648  W2        14995           0.0000000000
     43070     14357  TIP3      H1             42.0488294280       20.8338175841       16.2164936648  W2        14995           0.0000000000
     43071     14357  TIP3      H2             41.9009794280       22.3398575841       16.2597436648  W2        14995           0.0000000000
     43072     14358  TIP3      OH2            42.3113094280       19.9322675841       14.3112636648  W2        14996           0.0000000000
     43073     14358  TIP3      H1             42.8470594280       20.3839375841       13.6591936648  W2        14996           0.0000000000
     43074     14358  TIP3      H2             41.4592694280       19.8242475841       13.8886736648  W2        14996           0.0000000000
     43075     14359  TIP3      OH2            43.8931494280       25.3718875841       14.5507836648  W2        14997           0.0000000000
     43076     14359  TIP3      H1             44.6436294280       25.2156375841       13.9775636648  W2        14997           0.0000000000
     43077     14359  TIP3      H2             43.5539794280       26.2235475841       14.2753336648  W2        14997           0.0000000000
     43078     14360  TIP3      OH2            49.6254894280       25.9755875841       17.6565836648  W2        14999           0.0000000000
     43079     14360  TIP3      H1             49.3439894280       26.6850475841       17.0789636648  W2        14999           0.0000000000
     43080     14360  TIP3      H2             50.5679194280       25.9028875841       17.5057036648  W2        14999           0.0000000000
     43081     14361  TIP3      OH2            43.1168594280       17.3888375841       14.7426236648  W2        15001           0.0000000000
     43082     14361  TIP3      H1             43.0188194280       18.3351575841       14.6372436648  W2        15001           0.0000000000
     43083     14361  TIP3      H2             42.3744794280       17.0162175841       14.2669736648  W2        15001           0.0000000000
     43084     14362  TIP3      OH2            47.0965694280       20.8377275841       17.3818136648  W2        15003           0.0000000000
     43085     14362  TIP3      H1             46.1491094280       20.8696975841       17.5141436648  W2        15003           0.0000000000
     43086     14362  TIP3      H2             47.4092394280       20.2124375841       18.0356336648  W2        15003           0.0000000000
     43087     14363  TIP3      OH2            43.3386694280       16.6825775841       17.4139036648  W2        15006           0.0000000000
     43088     14363  TIP3      H1             44.0505094280       16.0427975841       17.3998136648  W2        15006           0.0000000000
     43089     14363  TIP3      H2             43.2377094280       16.9494075841       16.5002136648  W2        15006           0.0000000000
     43090     14364  TIP3      OH2            43.2386494280       35.2484475841        2.6439336648  W2        15008           0.0000000000
     43091     14364  TIP3      H1             44.1717194280       35.4063175841        2.7877736648  W2        15008           0.0000000000
     43092     14364  TIP3      H2             42.9745294280       35.9237475841        2.0190836648  W2        15008           0.0000000000
     43093     14365  TIP3      OH2            36.8071394280       29.8848275841        2.1267436648  W2        15009           0.0000000000
     43094     14365  TIP3      H1             37.7210594280       29.9637175841        2.4001336648  W2        15009           0.0000000000
     43095     14365  TIP3      H2             36.8144494280       29.1977875841        1.4603036648  W2        15009           0.0000000000
     43096     14366  TIP3      OH2            35.4561994280       35.2776775841        7.2041336648  W2        15010           0.0000000000
     43097     14366  TIP3      H1             34.8089094280       34.8158475841        6.6712536648  W2        15010           0.0000000000
     43098     14366  TIP3      H2             35.8106594280       34.6060075841        7.7867536648  W2        15010           0.0000000000
     43099     14367  TIP3      OH2            36.3261194280       33.3583775841        9.0087536648  W2        15011           0.0000000000
     43100     14367  TIP3      H1             35.9917994280       32.4781075841        9.1807736648  W2        15011           0.0000000000
     43101     14367  TIP3      H2             36.5483594280       33.7038775841        9.8733136648  W2        15011           0.0000000000
     43102     14368  TIP3      OH2            53.8745994280       34.1680175841       11.9892336648  W2        15012           0.0000000000
     43103     14368  TIP3      H1             53.8532694280       34.3528575841       12.9281736648  W2        15012           0.0000000000
     43104     14368  TIP3      H2             54.5652194280       34.7364175841       11.6483736648  W2        15012           0.0000000000
     43105     14369  TIP3      OH2            53.4378894280       33.7351275841       14.9111436648  W2        15013           0.0000000000
     43106     14369  TIP3      H1             52.9507594280       32.9995375841       14.5398836648  W2        15013           0.0000000000
     43107     14369  TIP3      H2             53.9871594280       33.3415175841       15.5890836648  W2        15013           0.0000000000
     43108     14370  TIP3      OH2            53.1895894280       27.7813075841        5.0634236648  W2        15015           0.0000000000
     43109     14370  TIP3      H1             54.0397294280       28.2023975841        5.1905836648  W2        15015           0.0000000000
     43110     14370  TIP3      H2             53.1950994280       27.0413175841        5.6705636648  W2        15015           0.0000000000
     43111     14371  TIP3      OH2            53.5841494280       25.8350475841        6.8869936648  W2        15016           0.0000000000
     43112     14371  TIP3      H1             52.8576094280       25.3553075841        7.2847536648  W2        15016           0.0000000000
     43113     14371  TIP3      H2             54.1654794280       26.0405175841        7.6191536648  W2        15016           0.0000000000
     43114     14372  TIP3      OH2            53.3432694280       28.6197975841       11.8347536648  W2        15017           0.0000000000
     43115     14372  TIP3      H1             54.1766894280       28.2417975841       11.5541136648  W2        15017           0.0000000000
     43116     14372  TIP3      H2             53.4552994280       29.5629175841       11.7156636648  W2        15017           0.0000000000
     43117     14373  TIP3      OH2            51.8294994280       31.4975475841       14.1415936648  W2        15018           0.0000000000
     43118     14373  TIP3      H1             51.1820294280       31.8226975841       14.7671136648  W2        15018           0.0000000000
     43119     14373  TIP3      H2             51.3118994280       31.0573175841       13.4674236648  W2        15018           0.0000000000
     43120     14374  TIP3      OH2            53.8524594280       25.7358975841        3.2781236648  W2        15019           0.0000000000
     43121     14374  TIP3      H1             53.3305694280       26.0923075841        2.5592136648  W2        15019           0.0000000000
     43122     14374  TIP3      H2             53.8193794280       26.4106775841        3.9562136648  W2        15019           0.0000000000
     43123     14375  TIP3      OH2            52.2013594280       22.9754575841        1.8288336648  W2        15020           0.0000000000
     43124     14375  TIP3      H1             52.2977994280       23.6421575841        1.1488036648  W2        15020           0.0000000000
     43125     14375  TIP3      H2             52.0613194280       22.1600875841        1.3473836648  W2        15020           0.0000000000
     43126     14376  TIP3      OH2            51.3708294280       24.3556975841        7.4498636648  W2        15021           0.0000000000
     43127     14376  TIP3      H1             51.2207094280       23.4105575841        7.4296436648  W2        15021           0.0000000000
     43128     14376  TIP3      H2             51.0172794280       24.6368375841        8.2937736648  W2        15021           0.0000000000
     43129     14377  TIP3      OH2            36.4060694280       26.4339175841       11.4602436648  W2        15022           0.0000000000
     43130     14377  TIP3      H1             36.5903594280       26.3520875841       10.5245336648  W2        15022           0.0000000000
     43131     14377  TIP3      H2             37.2553594280       26.3096175841       11.8838836648  W2        15022           0.0000000000
     43132     14378  TIP3      OH2            52.2271194280       26.3260275841       17.0886936648  W2        15023           0.0000000000
     43133     14378  TIP3      H1             52.8098494280       25.5912575841       17.2804136648  W2        15023           0.0000000000
     43134     14378  TIP3      H2             52.7910494280       27.0980575841       17.1352736648  W2        15023           0.0000000000
     43135     14379  TIP3      OH2            53.7238294280       24.2286075841       17.7732336648  W2        15024           0.0000000000
     43136     14379  TIP3      H1             52.8604994280       23.8498175841       17.6077036648  W2        15024           0.0000000000
     43137     14379  TIP3      H2             54.3281994280       23.4900875841       17.6988136648  W2        15024           0.0000000000
     43138     14380  TIP3      OH2            51.4487394280       20.3834375841        0.9463836648  W2        15025           0.0000000000
     43139     14380  TIP3      H1             52.0593194280       20.0121175841        1.5832036648  W2        15025           0.0000000000
     43140     14380  TIP3      H2             50.6118894280       19.9621275841        1.1423836648  W2        15025           0.0000000000
     43141     14381  TIP3      OH2            51.0813094280       21.9382775841        5.9123736648  W2        15026           0.0000000000
     43142     14381  TIP3      H1             51.3610194280       21.0313175841        6.0365436648  W2        15026           0.0000000000
     43143     14381  TIP3      H2             51.8404794280       22.3724275841        5.5232936648  W2        15026           0.0000000000
     43144     14382  TIP3      OH2            51.6931394280       22.5200175841       11.3482636648  W2        15027           0.0000000000
     43145     14382  TIP3      H1             52.6259394280       22.7320075841       11.3138636648  W2        15027           0.0000000000
     43146     14382  TIP3      H2             51.4578894280       22.6212275841       12.2705636648  W2        15027           0.0000000000
     43147     14383  TIP3      OH2            51.7223294280       23.2565475841       14.1242036648  W2        15028           0.0000000000
     43148     14383  TIP3      H1             50.8794594280       23.5245875841       14.4901836648  W2        15028           0.0000000000
     43149     14383  TIP3      H2             52.1647594280       24.0787375841       13.9133136648  W2        15028           0.0000000000
     43150     14384  TIP3      OH2            36.0035494280       21.7044175841       17.6011236648  W2        15029           0.0000000000
     43151     14384  TIP3      H1             36.9230394280       21.5822475841       17.8374336648  W2        15029           0.0000000000
     43152     14384  TIP3      H2             35.5539994280       20.9543875841       17.9904736648  W2        15029           0.0000000000
     43153     14385  TIP3      OH2            51.6947894280       19.2012075841        5.9605736648  W2        15031           0.0000000000
     43154     14385  TIP3      H1             51.8772894280       18.7523575841        6.7860736648  W2        15031           0.0000000000
     43155     14385  TIP3      H2             51.0950794280       18.6166475841        5.4970336648  W2        15031           0.0000000000
     43156     14386  TIP3      OH2            37.2247994280       20.0165775841       10.4924136648  W2        15032           0.0000000000
     43157     14386  TIP3      H1             37.6699594280       19.2248275841       10.7943836648  W2        15032           0.0000000000
     43158     14386  TIP3      H2             37.6910994280       20.7330975841       10.9229736648  W2        15032           0.0000000000
     43159     14387  TIP3      OH2            35.5288294280       23.0158775841       11.5614336648  W2        15033           0.0000000000
     43160     14387  TIP3      H1             36.0208094280       22.7949275841       10.7706336648  W2        15033           0.0000000000
     43161     14387  TIP3      H2             35.8909194280       23.8562175841       11.8423836648  W2        15033           0.0000000000
     43162     14388  TIP3      OH2            53.5614094280       19.2690175841        2.4886036648  W2        15035           0.0000000000
     43163     14388  TIP3      H1             53.9736694280       18.5475875841        2.0134036648  W2        15035           0.0000000000
     43164     14388  TIP3      H2             54.2430594280       19.9384775841        2.5470336648  W2        15035           0.0000000000
     43165     14389  TIP3      OH2            35.8424794280       19.2737875841        5.6156736648  W2        15036           0.0000000000
     43166     14389  TIP3      H1             34.9173194280       19.4824475841        5.4862236648  W2        15036           0.0000000000
     43167     14389  TIP3      H2             36.2964694280       19.7578675841        4.9259036648  W2        15036           0.0000000000
     43168     14390  TIP3      OH2            50.6131994280       34.2579575841        7.5614136648  W2        15037           0.0000000000
     43169     14390  TIP3      H1             51.2654894280       33.9101675841        6.9533236648  W2        15037           0.0000000000
     43170     14390  TIP3      H2             51.1235794280       34.7462775841        8.2073836648  W2        15037           0.0000000000
     43171     14391  TIP3      OH2            35.8060194280       18.0116875841       13.9599236648  W2        15038           0.0000000000
     43172     14391  TIP3      H1             35.1410694280       17.7657175841       14.6030136648  W2        15038           0.0000000000
     43173     14391  TIP3      H2             35.3631494280       18.6337275841       13.3827236648  W2        15038           0.0000000000
     43174     14392  TIP3      OH2            40.9522394280       32.1612175841       14.3629036648  W2        15040           0.0000000000
     43175     14392  TIP3      H1             40.5273494280       32.9710675841       14.0803636648  W2        15040           0.0000000000
     43176     14392  TIP3      H2             41.8565194280       32.2466275841       14.0608836648  W2        15040           0.0000000000
     43177     14393  TIP3      OH2            45.2633794280       33.5602175841       17.3222736648  W2        15041           0.0000000000
     43178     14393  TIP3      H1             45.4481294280       33.2268275841       18.2003036648  W2        15041           0.0000000000
     43179     14393  TIP3      H2             46.1098294280       33.8700775841       17.0001936648  W2        15041           0.0000000000
     43180     14394  TIP3      OH2            47.6084194280       34.8461075841       16.5664136648  W2        15042           0.0000000000
     43181     14394  TIP3      H1             48.2853094280       34.2133375841       16.3263336648  W2        15042           0.0000000000
     43182     14394  TIP3      H2             47.9302994280       35.2471575841       17.3737436648  W2        15042           0.0000000000
     43183     14395  TIP3      OH2            52.5257994280       17.4356575841       15.6459136648  W2        15043           0.0000000000
     43184     14395  TIP3      H1             51.7131494280       17.7606875841       15.2583836648  W2        15043           0.0000000000
     43185     14395  TIP3      H2             52.7586494280       16.6755075841       15.1128236648  W2        15043           0.0000000000
     43186     14396  TIP3      OH2            38.3539094280       35.4176075841       14.4104336648  W2        15044           0.0000000000
     43187     14396  TIP3      H1             37.6335494280       35.8577075841       13.9592036648  W2        15044           0.0000000000
     43188     14396  TIP3      H2             37.9883094280       35.1670775841       15.2588336648  W2        15044           0.0000000000
     43189     14397  TIP3      OH2            40.8211694280       35.0179975841       13.4401536648  W2        15045           0.0000000000
     43190     14397  TIP3      H1             39.9563894280       35.0898475841       13.8441636648  W2        15045           0.0000000000
     43191     14397  TIP3      H2             40.7660694280       35.5647275841       12.6564036648  W2        15045           0.0000000000
     43192     14398  TIP3      OH2            45.5317294280       34.9058875841       12.6157536648  W2        15046           0.0000000000
     43193     14398  TIP3      H1             45.0751294280       35.4348575841       11.9615936648  W2        15046           0.0000000000
     43194     14398  TIP3      H2             45.6945294280       35.5090275841       13.3409836648  W2        15046           0.0000000000
     43195     14399  TIP3      OH2            47.8593594280       33.7838475841       13.5607836648  W2        15047           0.0000000000
     43196     14399  TIP3      H1             46.9547294280       33.9488675841       13.2949936648  W2        15047           0.0000000000
     43197     14399  TIP3      H2             48.2882194280       34.6370675841       13.4951236648  W2        15047           0.0000000000
     43198     14400  TIP3      OH2            50.4635494280       35.3537575841       13.8555636648  W2        15048           0.0000000000
     43199     14400  TIP3      H1             50.2817494280       36.2696475841       13.6450536648  W2        15048           0.0000000000
     43200     14400  TIP3      H2             50.6403294280       34.9434675841       13.0090236648  W2        15048           0.0000000000
     43201     14401  TIP3      OH2            37.7687194280       34.0408575841       11.3206136648  W2        15049           0.0000000000
     43202     14401  TIP3      H1             37.7503194280       33.6153675841       12.1778436648  W2        15049           0.0000000000
     43203     14401  TIP3      H2             38.5735094280       33.7223575841       10.9118336648  W2        15049           0.0000000000
     43204     14402  TIP3      OH2            39.9100294280       32.7507275841        9.9756036648  W2        15050           0.0000000000
     43205     14402  TIP3      H1             39.6910994280       31.8344675841       10.1452036648  W2        15050           0.0000000000
     43206     14402  TIP3      H2             40.7342494280       32.8907675841       10.4417436648  W2        15050           0.0000000000
     43207     14403  TIP3      OH2            42.4472794280       33.2206575841       10.8244036648  W2        15051           0.0000000000
     43208     14403  TIP3      H1             42.6598494280       32.3325575841       10.5374936648  W2        15051           0.0000000000
     43209     14403  TIP3      H2             42.5117894280       33.1864275841       11.7788036648  W2        15051           0.0000000000
     43210     14404  TIP3      OH2            45.9556494280       18.8847175841        9.9687336648  W2        15052           0.0000000000
     43211     14404  TIP3      H1             45.2813294280       18.2552775841       10.2243136648  W2        15052           0.0000000000
     43212     14404  TIP3      H2             46.5195694280       18.4006075841        9.3655236648  W2        15052           0.0000000000
     43213     14405  TIP3      OH2            51.0983694280       16.9921175841       10.0814436648  W2        15053           0.0000000000
     43214     14405  TIP3      H1             51.7021294280       17.5396575841        9.5795436648  W2        15053           0.0000000000
     43215     14405  TIP3      H2             50.2285694280       17.3111575841        9.8408536648  W2        15053           0.0000000000
     43216     14406  TIP3      OH2            52.8254094280       18.1309875841        8.4145336648  W2        15054           0.0000000000
     43217     14406  TIP3      H1             53.4371594280       17.6165575841        7.8878936648  W2        15054           0.0000000000
     43218     14406  TIP3      H2             53.2077494280       19.0081975841        8.4379736648  W2        15054           0.0000000000
     43219     14407  TIP3      OH2            38.2823994280       17.5187475841        7.7907236648  W2        15055           0.0000000000
     43220     14407  TIP3      H1             37.5053794280       17.2842375841        7.2833136648  W2        15055           0.0000000000
     43221     14407  TIP3      H2             38.8127594280       16.7219575841        7.7995236648  W2        15055           0.0000000000
     43222     14408  TIP3      OH2            37.1187394280       17.3165575841        3.5943336648  W2        15056           0.0000000000
     43223     14408  TIP3      H1             37.5578094280       17.9276075841        3.0026836648  W2        15056           0.0000000000
     43224     14408  TIP3      H2             36.4849794280       17.8549675841        4.0683336648  W2        15056           0.0000000000
     43225     14409  TIP3      OH2            42.8616594280       17.4454575841        7.6040336648  W2        15057           0.0000000000
     43226     14409  TIP3      H1             43.7359994280       17.8338875841        7.5744636648  W2        15057           0.0000000000
     43227     14409  TIP3      H2             42.7257394280       17.2302375841        8.5267536648  W2        15057           0.0000000000
     43228     14410  TIP3      OH2            48.4184994280       17.4754375841        9.2532036648  W2        15058           0.0000000000
     43229     14410  TIP3      H1             48.4946594280       17.5705975841        8.3038036648  W2        15058           0.0000000000
     43230     14410  TIP3      H2             48.1434194280       16.5677275841        9.3821136648  W2        15058           0.0000000000
     43231     14411  TIP3      OH2            49.7717594280       17.5012175841        4.9457036648  W2        15059           0.0000000000
     43232     14411  TIP3      H1             49.0688694280       18.1161375841        4.7358436648  W2        15059           0.0000000000
     43233     14411  TIP3      H2             49.3268994280       16.6638875841        5.0767936648  W2        15059           0.0000000000
     43234     14412  TIP3      OH2            37.0196894280       33.2647775841        4.4918436648  W2        15060           0.0000000000
     43235     14412  TIP3      H1             36.3346794280       33.2266675841        3.8243536648  W2        15060           0.0000000000
     43236     14412  TIP3      H2             37.0234094280       34.1775375841        4.7800536648  W2        15060           0.0000000000
     43237     14413  TIP3      OH2            38.9796494280       19.2327075841        2.0367436648  W2        15061           0.0000000000
     43238     14413  TIP3      H1             39.4709894280       18.6029475841        1.5092936648  W2        15061           0.0000000000
     43239     14413  TIP3      H2             39.6032794280       19.5286475841        2.6998636648  W2        15061           0.0000000000
     43240     14414  TIP3      OH2            44.0056594280       19.5258575841        4.4937936648  W2        15062           0.0000000000
     43241     14414  TIP3      H1             44.1837894280       18.8791775841        5.1766536648  W2        15062           0.0000000000
     43242     14414  TIP3      H2             43.9522794280       20.3596275841        4.9609036648  W2        15062           0.0000000000
     43243     14415  TIP3      OH2            45.8840394280       34.4742675841        2.8894636648  W2        15063           0.0000000000
     43244     14415  TIP3      H1             46.7500594280       34.8410075841        2.7112836648  W2        15063           0.0000000000
     43245     14415  TIP3      H2             45.6373194280       34.0350675841        2.0755436648  W2        15063           0.0000000000
     43246     14416  TIP3      OH2            52.5929994280       34.0372975841        5.5685736648  W2        15064           0.0000000000
     43247     14416  TIP3      H1             52.3987094280       33.2895075841        5.0035336648  W2        15064           0.0000000000
     43248     14416  TIP3      H2             52.5540094280       34.7953075841        4.9853636648  W2        15064           0.0000000000
     43249     14417  TIP3      OH2            38.2401994280       18.0329375841       17.3083436648  W2        15065           0.0000000000
     43250     14417  TIP3      H1             37.8740194280       17.2671975841       17.7508136648  W2        15065           0.0000000000
     43251     14417  TIP3      H2             39.1530494280       18.0619575841       17.5948536648  W2        15065           0.0000000000
     43252     14418  TIP3      OH2            38.8378094280       34.1848575841        1.5170536648  W2        15067           0.0000000000
     43253     14418  TIP3      H1             38.5702694280       34.4711475841        2.3903636648  W2        15067           0.0000000000
     43254     14418  TIP3      H2             39.6090694280       33.6387775841        1.6693036648  W2        15067           0.0000000000
     43255     14419  TIP3      OH2            51.8106194280       32.7885375841       17.7187536648  W2        15069           0.0000000000
     43256     14419  TIP3      H1             51.0288094280       32.6023375841       17.1988136648  W2        15069           0.0000000000
     43257     14419  TIP3      H2             51.7386094280       33.7179675841       17.9360036648  W2        15069           0.0000000000
     43258     14420  TIP3      OH2            57.5182894280       25.5442575841       12.7612836648  W2        15070           0.0000000000
     43259     14420  TIP3      H1             57.5594994280       24.9185875841       13.4845236648  W2        15070           0.0000000000
     43260     14420  TIP3      H2             58.2210594280       26.1681175841       12.9433236648  W2        15070           0.0000000000
     43261     14421  TIP3      OH2            58.4415994280       29.9941475841       11.2961936648  W2        15071           0.0000000000
     43262     14421  TIP3      H1             58.0721194280       29.1921975841       10.9266236648  W2        15071           0.0000000000
     43263     14421  TIP3      H2             59.3827094280       29.8256375841       11.3425336648  W2        15071           0.0000000000
     43264     14422  TIP3      OH2            55.0516494280       23.6544075841        6.6890736648  W2        15072           0.0000000000
     43265     14422  TIP3      H1             54.6039894280       24.5002775841        6.6707236648  W2        15072           0.0000000000
     43266     14422  TIP3      H2             54.4907694280       23.0748275841        6.1735836648  W2        15072           0.0000000000
     43267     14423  TIP3      OH2            55.7622594280       25.8163675841        8.8148736648  W2        15073           0.0000000000
     43268     14423  TIP3      H1             55.9756094280       25.0465275841        9.3421736648  W2        15073           0.0000000000
     43269     14423  TIP3      H2             56.5000194280       25.9060375841        8.2116336648  W2        15073           0.0000000000
     43270     14424  TIP3      OH2            56.4549094280       23.2546475841        9.9364936648  W2        15074           0.0000000000
     43271     14424  TIP3      H1             57.1085694280       22.7048175841       10.3685036648  W2        15074           0.0000000000
     43272     14424  TIP3      H2             56.4788394280       22.9805475841        9.0196936648  W2        15074           0.0000000000
     43273     14425  TIP3      OH2            58.2386794280       21.6680875841       11.2006536648  W2        15075           0.0000000000
     43274     14425  TIP3      H1             58.8523094280       22.3008475841       11.5738936648  W2        15075           0.0000000000
     43275     14425  TIP3      H2             58.7507494280       21.1955875841       10.5443436648  W2        15075           0.0000000000
     43276     14426  TIP3      OH2            55.7426094280       29.0865675841        5.1048836648  W2        15076           0.0000000000
     43277     14426  TIP3      H1             55.4706994280       29.3156675841        4.2161736648  W2        15076           0.0000000000
     43278     14426  TIP3      H2             55.7881794280       29.9244475841        5.5654136648  W2        15076           0.0000000000
     43279     14427  TIP3      OH2            58.1556594280       26.1248675841       15.6148536648  W2        15077           0.0000000000
     43280     14427  TIP3      H1             58.2259794280       26.7755475841       16.3133536648  W2        15077           0.0000000000
     43281     14427  TIP3      H2             57.2648794280       26.2276175841       15.2799436648  W2        15077           0.0000000000
     43282     14428  TIP3      OH2            55.0723294280       28.1912775841       14.4398536648  W2        15078           0.0000000000
     43283     14428  TIP3      H1             54.5711694280       28.1632175841       13.6248236648  W2        15078           0.0000000000
     43284     14428  TIP3      H2             55.0776994280       27.2855975841       14.7495836648  W2        15078           0.0000000000
     43285     14429  TIP3      OH2            54.8225994280       30.9716575841       11.3238736648  W2        15079           0.0000000000
     43286     14429  TIP3      H1             55.7686594280       30.8273575841       11.3048236648  W2        15079           0.0000000000
     43287     14429  TIP3      H2             54.7102294280       31.7559375841       11.8609936648  W2        15079           0.0000000000
     43288     14430  TIP3      OH2            58.0668094280       33.7726175841        7.4693436648  W2        15080           0.0000000000
     43289     14430  TIP3      H1             58.2188494280       33.4246575841        8.3479936648  W2        15080           0.0000000000
     43290     14430  TIP3      H2             57.2158494280       33.4163475841        7.2140636648  W2        15080           0.0000000000
     43291     14431  TIP3      OH2            57.3213794280       29.5148175841       15.4831336648  W2        15081           0.0000000000
     43292     14431  TIP3      H1             57.5375094280       29.1533775841       16.3427136648  W2        15081           0.0000000000
     43293     14431  TIP3      H2             56.4658494280       29.1401975841       15.2734836648  W2        15081           0.0000000000
     43294     14432  TIP3      OH2            57.7812394280       23.2706675841       14.4407736648  W2        15082           0.0000000000
     43295     14432  TIP3      H1             57.7431794280       23.6708275841       15.3094836648  W2        15082           0.0000000000
     43296     14432  TIP3      H2             57.2903494280       22.4539075841       14.5310636648  W2        15082           0.0000000000
     43297     14433  TIP3      OH2            54.3893194280       20.3868475841        8.2912436648  W2        15083           0.0000000000
     43298     14433  TIP3      H1             55.0200894280       20.3580575841        9.0106336648  W2        15083           0.0000000000
     43299     14433  TIP3      H2             54.8387494280       19.9617175841        7.5608336648  W2        15083           0.0000000000
     43300     14434  TIP3      OH2            55.6635294280       21.1330475841        3.7152836648  W2        15084           0.0000000000
     43301     14434  TIP3      H1             56.1376994280       21.7240375841        3.1303736648  W2        15084           0.0000000000
     43302     14434  TIP3      H2             54.9461694280       21.6633375841        4.0622936648  W2        15084           0.0000000000
     43303     14435  TIP3      OH2            57.4379694280       22.2277075841        7.3987436648  W2        15085           0.0000000000
     43304     14435  TIP3      H1             56.5487694280       22.3272575841        7.0587036648  W2        15085           0.0000000000
     43305     14435  TIP3      H2             57.7344594280       21.3860075841        7.0525336648  W2        15085           0.0000000000
     43306     14436  TIP3      OH2            57.9003094280       27.9793775841       17.7209736648  W2        15086           0.0000000000
     43307     14436  TIP3      H1             58.6325494280       28.2339675841       18.2824236648  W2        15086           0.0000000000
     43308     14436  TIP3      H2             57.1201794280       28.1839175841       18.2365136648  W2        15086           0.0000000000
     43309     14437  TIP3      OH2            58.2252794280       27.2827575841       10.3274136648  W2        15087           0.0000000000
     43310     14437  TIP3      H1             58.9699994280       27.2803275841        9.7260636648  W2        15087           0.0000000000
     43311     14437  TIP3      H2             58.3029394280       26.4591375841       10.8089236648  W2        15087           0.0000000000
     43312     14438  TIP3      OH2            55.2332494280       25.7434475841       15.6422636648  W2        15088           0.0000000000
     43313     14438  TIP3      H1             55.4561094280       25.3254075841       16.4740136648  W2        15088           0.0000000000
     43314     14438  TIP3      H2             54.6312594280       25.1309475841       15.2195436648  W2        15088           0.0000000000
     43315     14439  TIP3      OH2            56.3549894280       25.6629875841        2.3188036648  W2        15089           0.0000000000
     43316     14439  TIP3      H1             56.9709794280       26.2897075841        2.6982836648  W2        15089           0.0000000000
     43317     14439  TIP3      H2             55.4932494280       25.9789675841        2.5904536648  W2        15089           0.0000000000
     43318     14440  TIP3      OH2            56.8671994280       20.4967175841       15.2004036648  W2        15090           0.0000000000
     43319     14440  TIP3      H1             55.9744294280       20.8352575841       15.1328036648  W2        15090           0.0000000000
     43320     14440  TIP3      H2             56.7684794280       19.6413275841       15.6184836648  W2        15090           0.0000000000
     43321     14441  TIP3      OH2            56.5183994280       32.3011575841       13.6353436648  W2        15091           0.0000000000
     43322     14441  TIP3      H1             56.7354294280       31.3693975841       13.6043136648  W2        15091           0.0000000000
     43323     14441  TIP3      H2             56.7647494280       32.5756575841       14.5186236648  W2        15091           0.0000000000
     43324     14442  TIP3      OH2            57.7700294280       27.5753675841        3.8113636648  W2        15092           0.0000000000
     43325     14442  TIP3      H1             57.0839594280       27.9276175841        4.3783336648  W2        15092           0.0000000000
     43326     14442  TIP3      H2             58.2928194280       28.3383275841        3.5647936648  W2        15092           0.0000000000
     43327     14443  TIP3      OH2            58.3859194280       30.1892575841        2.7081436648  W2        15093           0.0000000000
     43328     14443  TIP3      H1             58.9780694280       30.8887375841        2.9843836648  W2        15093           0.0000000000
     43329     14443  TIP3      H2             58.8452194280       29.7562075841        1.9886036648  W2        15093           0.0000000000
     43330     14444  TIP3      OH2            56.7018394280       22.8535575841        1.8240836648  W2        15094           0.0000000000
     43331     14444  TIP3      H1             56.6570994280       23.7928675841        2.0027836648  W2        15094           0.0000000000
     43332     14444  TIP3      H2             55.8141594280       22.6180475841        1.5542936648  W2        15094           0.0000000000
     43333     14445  TIP3      OH2            57.5100394280       17.6352175841       10.4971836648  W2        15095           0.0000000000
     43334     14445  TIP3      H1             57.2810194280       17.6944675841        9.5696836648  W2        15095           0.0000000000
     43335     14445  TIP3      H2             57.0673794280       16.8437675841       10.8035936648  W2        15095           0.0000000000
     43336     14446  TIP3      OH2            56.4403694280       31.5759275841        6.6577636648  W2        15096           0.0000000000
     43337     14446  TIP3      H1             55.6082294280       32.0481975841        6.6849036648  W2        15096           0.0000000000
     43338     14446  TIP3      H2             56.9861994280       32.0856875841        6.0590736648  W2        15096           0.0000000000
     43339     14447  TIP3      OH2            55.6631394280       29.8848275841        2.1267436648  W2        15101           0.0000000000
     43340     14447  TIP3      H1             56.5770594280       29.9637175841        2.4001336648  W2        15101           0.0000000000
     43341     14447  TIP3      H2             55.6704494280       29.1977875841        1.4603036648  W2        15101           0.0000000000
     43342     14448  TIP3      OH2            54.3121994280       35.2776775841        7.2041336648  W2        15102           0.0000000000
     43343     14448  TIP3      H1             53.6649094280       34.8158475841        6.6712536648  W2        15102           0.0000000000
     43344     14448  TIP3      H2             54.6666594280       34.6060075841        7.7867536648  W2        15102           0.0000000000
     43345     14449  TIP3      OH2            55.1821194280       33.3583775841        9.0087536648  W2        15103           0.0000000000
     43346     14449  TIP3      H1             54.8477994280       32.4781075841        9.1807736648  W2        15103           0.0000000000
     43347     14449  TIP3      H2             55.4043594280       33.7038775841        9.8733136648  W2        15103           0.0000000000
     43348     14450  TIP3      OH2            55.2620694280       26.4339175841       11.4602436648  W2        15104           0.0000000000
     43349     14450  TIP3      H1             55.4463594280       26.3520875841       10.5245336648  W2        15104           0.0000000000
     43350     14450  TIP3      H2             56.1113594280       26.3096175841       11.8838836648  W2        15104           0.0000000000
     43351     14451  TIP3      OH2            54.8595494280       21.7044175841       17.6011236648  W2        15105           0.0000000000
     43352     14451  TIP3      H1             55.7790394280       21.5822475841       17.8374336648  W2        15105           0.0000000000
     43353     14451  TIP3      H2             54.4099994280       20.9543875841       17.9904736648  W2        15105           0.0000000000
     43354     14452  TIP3      OH2            56.0807994280       20.0165775841       10.4924136648  W2        15106           0.0000000000
     43355     14452  TIP3      H1             56.5259594280       19.2248275841       10.7943836648  W2        15106           0.0000000000
     43356     14452  TIP3      H2             56.5470994280       20.7330975841       10.9229736648  W2        15106           0.0000000000
     43357     14453  TIP3      OH2            54.3848294280       23.0158775841       11.5614336648  W2        15107           0.0000000000
     43358     14453  TIP3      H1             54.8768094280       22.7949275841       10.7706336648  W2        15107           0.0000000000
     43359     14453  TIP3      H2             54.7469194280       23.8562175841       11.8423836648  W2        15107           0.0000000000
     43360     14454  TIP3      OH2            54.6984794280       19.2737875841        5.6156736648  W2        15108           0.0000000000
     43361     14454  TIP3      H1             53.7733194280       19.4824475841        5.4862236648  W2        15108           0.0000000000
     43362     14454  TIP3      H2             55.1524694280       19.7578675841        4.9259036648  W2        15108           0.0000000000
     43363     14455  TIP3      OH2            54.6620194280       18.0116875841       13.9599236648  W2        15109           0.0000000000
     43364     14455  TIP3      H1             53.9970694280       17.7657175841       14.6030136648  W2        15109           0.0000000000
     43365     14455  TIP3      H2             54.2191494280       18.6337275841       13.3827236648  W2        15109           0.0000000000
     43366     14456  TIP3      OH2            57.2099094280       35.4176075841       14.4104336648  W2        15111           0.0000000000
     43367     14456  TIP3      H1             56.4895494280       35.8577075841       13.9592036648  W2        15111           0.0000000000
     43368     14456  TIP3      H2             56.8443094280       35.1670775841       15.2588336648  W2        15111           0.0000000000
     43369     14457  TIP3      OH2            56.6247194280       34.0408575841       11.3206136648  W2        15112           0.0000000000
     43370     14457  TIP3      H1             56.6063194280       33.6153675841       12.1778436648  W2        15112           0.0000000000
     43371     14457  TIP3      H2             57.4295094280       33.7223575841       10.9118336648  W2        15112           0.0000000000
     43372     14458  TIP3      OH2            57.1383994280       17.5187475841        7.7907236648  W2        15113           0.0000000000
     43373     14458  TIP3      H1             56.3613794280       17.2842375841        7.2833136648  W2        15113           0.0000000000
     43374     14458  TIP3      H2             57.6687594280       16.7219575841        7.7995236648  W2        15113           0.0000000000
     43375     14459  TIP3      OH2            55.9747394280       17.3165575841        3.5943336648  W2        15114           0.0000000000
     43376     14459  TIP3      H1             56.4138094280       17.9276075841        3.0026836648  W2        15114           0.0000000000
     43377     14459  TIP3      H2             55.3409794280       17.8549675841        4.0683336648  W2        15114           0.0000000000
     43378     14460  TIP3      OH2            55.8756894280       33.2647775841        4.4918436648  W2        15115           0.0000000000
     43379     14460  TIP3      H1             55.1906794280       33.2266675841        3.8243536648  W2        15115           0.0000000000
     43380     14460  TIP3      H2             55.8794094280       34.1775375841        4.7800536648  W2        15115           0.0000000000
     43381     14461  TIP3      OH2            57.8356494280       19.2327075841        2.0367436648  W2        15116           0.0000000000
     43382     14461  TIP3      H1             58.3269894280       18.6029475841        1.5092936648  W2        15116           0.0000000000
     43383     14461  TIP3      H2             58.4592794280       19.5286475841        2.6998636648  W2        15116           0.0000000000
     43384     14462  TIP3      OH2            57.0961994280       18.0329375841       17.3083436648  W2        15117           0.0000000000
     43385     14462  TIP3      H1             56.7300194280       17.2671975841       17.7508136648  W2        15117           0.0000000000
     43386     14462  TIP3      H2             58.0090494280       18.0619575841       17.5948536648  W2        15117           0.0000000000
     43387     14463  TIP3      OH2            57.6938094280       34.1848575841        1.5170536648  W2        15118           0.0000000000
     43388     14463  TIP3      H1             57.4262694280       34.4711475841        2.3903636648  W2        15118           0.0000000000
     43389     14463  TIP3      H2             58.4650694280       33.6387775841        1.6693036648  W2        15118           0.0000000000
     43390     14464  TIP3      OH2           -46.9193405720       45.5309775841        7.7494736648  W2        15119           0.0000000000
     43391     14464  TIP3      H1            -46.8302305720       46.4747975841        7.6171836648  W2        15119           0.0000000000
     43392     14464  TIP3      H2            -47.5575805720       45.2556175841        7.0914136648  W2        15119           0.0000000000
     43393     14465  TIP3      OH2           -47.9862105720       44.7860475841       11.1682936648  W2        15120           0.0000000000
     43394     14465  TIP3      H1            -48.0244605720       44.1396775841       11.8732536648  W2        15120           0.0000000000
     43395     14465  TIP3      H2            -48.3085605720       44.3194875841       10.3971636648  W2        15120           0.0000000000
     43396     14466  TIP3      OH2           -55.6177105720       44.4002575841       12.7612836648  W2        15121           0.0000000000
     43397     14466  TIP3      H1            -55.5765005720       43.7745875841       13.4845236648  W2        15121           0.0000000000
     43398     14466  TIP3      H2            -54.9149405720       45.0241175841       12.9433236648  W2        15121           0.0000000000
     43399     14467  TIP3      OH2           -44.2801905720       47.7250875841        9.4698036648  W2        15122           0.0000000000
     43400     14467  TIP3      H1            -44.7209205720       47.0046875841        9.9203636648  W2        15122           0.0000000000
     43401     14467  TIP3      H2            -44.2932205720       48.4458075841       10.0995736648  W2        15122           0.0000000000
     43402     14468  TIP3      OH2           -54.6944005720       48.8501475841       11.2961936648  W2        15123           0.0000000000
     43403     14468  TIP3      H1            -55.0638805720       48.0481975841       10.9266236648  W2        15123           0.0000000000
     43404     14468  TIP3      H2            -53.7532905720       48.6816375841       11.3425336648  W2        15123           0.0000000000
     43405     14469  TIP3      OH2           -58.0843505720       42.5104075841        6.6890736648  W2        15124           0.0000000000
     43406     14469  TIP3      H1            -58.5320105720       43.3562775841        6.6707236648  W2        15124           0.0000000000
     43407     14469  TIP3      H2            -58.6452305720       41.9308275841        6.1735836648  W2        15124           0.0000000000
     43408     14470  TIP3      OH2           -57.3737405720       44.6723675841        8.8148736648  W2        15125           0.0000000000
     43409     14470  TIP3      H1            -57.1603905720       43.9025275841        9.3421736648  W2        15125           0.0000000000
     43410     14470  TIP3      H2            -56.6359805720       44.7620375841        8.2116336648  W2        15125           0.0000000000
     43411     14471  TIP3      OH2           -47.1686405720       52.8292575841        9.6818436648  W2        15126           0.0000000000
     43412     14471  TIP3      H1            -46.5490005720       52.1527275841        9.4087636648  W2        15126           0.0000000000
     43413     14471  TIP3      H2            -47.3769005720       52.6113375841       10.5903336648  W2        15126           0.0000000000
     43414     14472  TIP3      OH2           -49.5967705720       47.2181875841       11.5743936648  W2        15127           0.0000000000
     43415     14472  TIP3      H1            -49.2929805720       46.5323275841       10.9798036648  W2        15127           0.0000000000
     43416     14472  TIP3      H2            -48.8753705720       47.3370575841       12.1921936648  W2        15127           0.0000000000
     43417     14473  TIP3      OH2           -40.9337905720       38.8197175841       12.4350136648  W2        15128           0.0000000000
     43418     14473  TIP3      H1            -40.8845705720       39.4298375841       13.1709236648  W2        15128           0.0000000000
     43419     14473  TIP3      H2            -40.5082805720       39.2808075841       11.7121236648  W2        15128           0.0000000000
     43420     14474  TIP3      OH2           -46.4560705720       41.6124275841       11.9018736648  W2        15129           0.0000000000
     43421     14474  TIP3      H1            -46.3134805720       40.6661275841       11.9220336648  W2        15129           0.0000000000
     43422     14474  TIP3      H2            -46.5621705720       41.8194075841       10.9733636648  W2        15129           0.0000000000
     43423     14475  TIP3      OH2           -53.3012405720       39.7140675841        9.1743536648  W2        15130           0.0000000000
     43424     14475  TIP3      H1            -53.2581305720       40.5739175841        8.7559836648  W2        15130           0.0000000000
     43425     14475  TIP3      H2            -53.7588305720       39.1615375841        8.5406736648  W2        15130           0.0000000000
     43426     14476  TIP3      OH2           -45.5789705720       39.8446275841        7.5751836648  W2        15131           0.0000000000
     43427     14476  TIP3      H1            -44.9325405720       39.5159475841        8.1999436648  W2        15131           0.0000000000
     43428     14476  TIP3      H2            -45.0690305720       40.3625275841        6.9523236648  W2        15131           0.0000000000
     43429     14477  TIP3      OH2           -56.6810905720       42.1106475841        9.9364936648  W2        15132           0.0000000000
     43430     14477  TIP3      H1            -56.0274305720       41.5608175841       10.3685036648  W2        15132           0.0000000000
     43431     14477  TIP3      H2            -56.6571605720       41.8365475841        9.0196936648  W2        15132           0.0000000000
     43432     14478  TIP3      OH2           -51.5246405720       43.6607775841        9.1516436648  W2        15133           0.0000000000
     43433     14478  TIP3      H1            -50.9085405720       43.1343175841        9.6610436648  W2        15133           0.0000000000
     43434     14478  TIP3      H2            -52.1107605720       43.0206475841        8.7480036648  W2        15133           0.0000000000
     43435     14479  TIP3      OH2           -40.5423305720       40.2976375841       14.6709936648  W2        15134           0.0000000000
     43436     14479  TIP3      H1            -41.2308705720       40.9557075841       14.5756536648  W2        15134           0.0000000000
     43437     14479  TIP3      H2            -40.5268705720       40.1004275841       15.6075336648  W2        15134           0.0000000000
     43438     14480  TIP3      OH2           -54.4910505720       38.6319075841       13.2484336648  W2        15135           0.0000000000
     43439     14480  TIP3      H1            -54.7098805720       39.1619675841       12.4820336648  W2        15135           0.0000000000
     43440     14480  TIP3      H2            -55.1589605720       38.8584575841       13.8955736648  W2        15135           0.0000000000
     43441     14481  TIP3      OH2           -47.1220705720       48.1320175841        6.7923436648  W2        15136           0.0000000000
     43442     14481  TIP3      H1            -47.4175605720       47.8092475841        5.9410336648  W2        15136           0.0000000000
     43443     14481  TIP3      H2            -47.4462905720       49.0316875841        6.8336036648  W2        15136           0.0000000000
     43444     14482  TIP3      OH2           -51.9219105720       46.3074775841       13.5358036648  W2        15137           0.0000000000
     43445     14482  TIP3      H1            -52.6620005720       46.9056275841       13.6393236648  W2        15137           0.0000000000
     43446     14482  TIP3      H2            -51.2079605720       46.8614375841       13.2201636648  W2        15137           0.0000000000
     43447     14483  TIP3      OH2           -43.8151305720       39.1355575841        9.5557736648  W2        15138           0.0000000000
     43448     14483  TIP3      H1            -44.0303305720       38.3698975841       10.0883736648  W2        15138           0.0000000000
     43449     14483  TIP3      H2            -43.1593905720       39.6080175841       10.0686236648  W2        15138           0.0000000000
     43450     14484  TIP3      OH2           -54.8973205720       40.5240875841       11.2006536648  W2        15139           0.0000000000
     43451     14484  TIP3      H1            -54.2836905720       41.1568475841       11.5738936648  W2        15139           0.0000000000
     43452     14484  TIP3      H2            -54.3852505720       40.0515875841       10.5443436648  W2        15139           0.0000000000
     43453     14485  TIP3      OH2           -53.5144805720       48.2717775841       14.3229536648  W2        15140           0.0000000000
     43454     14485  TIP3      H1            -53.5197205720       49.1511275841       13.9448836648  W2        15140           0.0000000000
     43455     14485  TIP3      H2            -54.3680705720       48.1881875841       14.7479436648  W2        15140           0.0000000000
     43456     14486  TIP3      OH2           -57.3933905720       47.9425675841        5.1048836648  W2        15141           0.0000000000
     43457     14486  TIP3      H1            -57.6653005720       48.1716675841        4.2161736648  W2        15141           0.0000000000
     43458     14486  TIP3      H2            -57.3478205720       48.7804475841        5.5654136648  W2        15141           0.0000000000
     43459     14487  TIP3      OH2           -43.7684205720       49.5641575841       11.8177336648  W2        15142           0.0000000000
     43460     14487  TIP3      H1            -44.7100505720       49.6225475841       11.9794236648  W2        15142           0.0000000000
     43461     14487  TIP3      H2            -43.4918105720       50.4702075841       11.6807036648  W2        15142           0.0000000000
     43462     14488  TIP3      OH2           -43.4677205720       37.8506875841       13.2351236648  W2        15143           0.0000000000
     43463     14488  TIP3      H1            -44.2038005720       38.4613975841       13.1972536648  W2        15143           0.0000000000
     43464     14488  TIP3      H2            -42.7843205720       38.2655875841       12.7087636648  W2        15143           0.0000000000
     43465     14489  TIP3      OH2           -50.4645805720       35.9374175841       10.7009236648  W2        15144           0.0000000000
     43466     14489  TIP3      H1            -50.5821605720       34.9890175841       10.6467536648  W2        15144           0.0000000000
     43467     14489  TIP3      H2            -51.3195705720       36.2700275841       10.9740336648  W2        15144           0.0000000000
     43468     14490  TIP3      OH2           -45.5163005720       51.3455075841        8.4428936648  W2        15145           0.0000000000
     43469     14490  TIP3      H1            -45.0910705720       50.6382975841        7.9578536648  W2        15145           0.0000000000
     43470     14490  TIP3      H2            -45.1993005720       52.1467775841        8.0261136648  W2        15145           0.0000000000
     43471     14491  TIP3      OH2           -44.3566505720       49.2463575841        6.9515536648  W2        15146           0.0000000000
     43472     14491  TIP3      H1            -44.6141705720       48.5563675841        6.3401436648  W2        15146           0.0000000000
     43473     14491  TIP3      H2            -44.2855705720       48.8034775841        7.7971436648  W2        15146           0.0000000000
     43474     14492  TIP3      OH2           -42.6706305720       47.8130275841       15.4289036648  W2        15147           0.0000000000
     43475     14492  TIP3      H1            -42.5310005720       47.2212775841       14.6896036648  W2        15147           0.0000000000
     43476     14492  TIP3      H2            -42.5033505720       48.6856175841       15.0727836648  W2        15147           0.0000000000
     43477     14493  TIP3      OH2           -48.1980905720       44.7749775841        5.2015036648  W2        15148           0.0000000000
     43478     14493  TIP3      H1            -48.9095405720       45.3099475841        4.8495536648  W2        15148           0.0000000000
     43479     14493  TIP3      H2            -47.5071305720       44.8301875841        4.5413936648  W2        15148           0.0000000000
     43480     14494  TIP3      OH2           -48.1441705720       43.2324075841        2.2400036648  W2        15149           0.0000000000
     43481     14494  TIP3      H1            -47.4431805720       43.2550975841        2.8914036648  W2        15149           0.0000000000
     43482     14494  TIP3      H2            -47.8418805720       42.6043775841        1.5839336648  W2        15149           0.0000000000
     43483     14495  TIP3      OH2           -40.8287005720       44.1528275841       13.4949436648  W2        15150           0.0000000000
     43484     14495  TIP3      H1            -41.4812905720       44.8473875841       13.5840336648  W2        15150           0.0000000000
     43485     14495  TIP3      H2            -40.3636705720       44.3629175841       12.6851036648  W2        15150           0.0000000000
     43486     14496  TIP3      OH2           -44.7923205720       44.9843075841        6.1530936648  W2        15151           0.0000000000
     43487     14496  TIP3      H1            -45.5242205720       45.2126775841        6.7261536648  W2        15151           0.0000000000
     43488     14496  TIP3      H2            -44.3451005720       44.2705775841        6.6078436648  W2        15151           0.0000000000
     43489     14497  TIP3      OH2           -44.8949705720       43.1585675841       15.2207936648  W2        15152           0.0000000000
     43490     14497  TIP3      H1            -44.8150605720       43.9220075841       15.7926436648  W2        15152           0.0000000000
     43491     14497  TIP3      H2            -45.4962005720       43.4378075841       14.5303036648  W2        15152           0.0000000000
     43492     14498  TIP3      OH2           -53.1469505720       45.6149275841        8.0355936648  W2        15153           0.0000000000
     43493     14498  TIP3      H1            -53.4774305720       45.2442675841        7.2172936648  W2        15153           0.0000000000
     43494     14498  TIP3      H2            -52.5585405720       44.9443275841        8.3824236648  W2        15153           0.0000000000
     43495     14499  TIP3      OH2           -51.7802005720       49.0429875841       10.7168136648  W2        15154           0.0000000000
     43496     14499  TIP3      H1            -51.8750705720       48.4642975841        9.9602736648  W2        15154           0.0000000000
     43497     14499  TIP3      H2            -51.0508405720       48.6715575841       11.2130936648  W2        15154           0.0000000000
     43498     14500  TIP3      OH2           -52.7804005720       44.3834875841       11.6690936648  W2        15155           0.0000000000
     43499     14500  TIP3      H1            -52.2151505720       44.5049075841       10.9062136648  W2        15155           0.0000000000
     43500     14500  TIP3      H2            -52.4615105720       45.0209875841       12.3079436648  W2        15155           0.0000000000
     43501     14501  TIP3      OH2           -46.4711805720       49.8866775841       12.4031436648  W2        15156           0.0000000000
     43502     14501  TIP3      H1            -46.7115205720       50.5489875841       13.0510636648  W2        15156           0.0000000000
     43503     14501  TIP3      H2            -46.6693605720       49.0521975841       12.8281036648  W2        15156           0.0000000000
     43504     14502  TIP3      OH2           -51.9003305720       48.7827575841       16.3862836648  W2        15157           0.0000000000
     43505     14502  TIP3      H1            -52.2115805720       49.5650775841       16.8416036648  W2        15157           0.0000000000
     43506     14502  TIP3      H2            -52.5503105720       48.6296675841       15.7004836648  W2        15157           0.0000000000
     43507     14503  TIP3      OH2           -45.9213705720       44.1465975841        3.8382136648  W2        15158           0.0000000000
     43508     14503  TIP3      H1            -45.3418205720       44.2966275841        4.5851036648  W2        15158           0.0000000000
     43509     14503  TIP3      H2            -45.5073705720       44.6173375841        3.1148536648  W2        15158           0.0000000000
     43510     14504  TIP3      OH2           -54.9803405720       44.9808675841       15.6148536648  W2        15159           0.0000000000
     43511     14504  TIP3      H1            -54.9100205720       45.6315475841       16.3133536648  W2        15159           0.0000000000
     43512     14504  TIP3      H2            -55.8711205720       45.0836175841       15.2799436648  W2        15159           0.0000000000
     43513     14505  TIP3      OH2           -48.1948805720       50.8834475841        7.2735236648  W2        15160           0.0000000000
     43514     14505  TIP3      H1            -47.7211205720       51.1790775841        8.0509436648  W2        15160           0.0000000000
     43515     14505  TIP3      H2            -48.7579505720       51.6216075841        7.0404836648  W2        15160           0.0000000000
     43516     14506  TIP3      OH2           -53.6607405720       50.8542575841       17.1496636648  W2        15161           0.0000000000
     43517     14506  TIP3      H1            -53.6532105720       50.7182275841       16.2022136648  W2        15161           0.0000000000
     43518     14506  TIP3      H2            -54.5767005720       50.7370675841       17.4016636648  W2        15161           0.0000000000
     43519     14507  TIP3      OH2           -42.2225305720       35.8966375841        3.6511836648  W2        15162           0.0000000000
     43520     14507  TIP3      H1            -43.1224605720       36.0355375841        3.9462436648  W2        15162           0.0000000000
     43521     14507  TIP3      H2            -41.9706905720       36.7280975841        3.2493536648  W2        15162           0.0000000000
     43522     14508  TIP3      OH2           -54.1566805720       44.6843575841        5.6248736648  W2        15163           0.0000000000
     43523     14508  TIP3      H1            -54.4485505720       45.4525275841        5.1340036648  W2        15163           0.0000000000
     43524     14508  TIP3      H2            -54.8311605720       44.0249775841        5.4620136648  W2        15163           0.0000000000
     43525     14509  TIP3      OH2           -41.0333905720       50.2628775841        2.0275736648  W2        15164           0.0000000000
     43526     14509  TIP3      H1            -40.9600405720       51.2018975841        2.1981036648  W2        15164           0.0000000000
     43527     14509  TIP3      H2            -40.1278805720       49.9577375841        1.9713036648  W2        15164           0.0000000000
     43528     14510  TIP3      OH2           -58.0636705720       47.0472775841       14.4398536648  W2        15165           0.0000000000
     43529     14510  TIP3      H1            -58.5648305720       47.0192175841       13.6248236648  W2        15165           0.0000000000
     43530     14510  TIP3      H2            -58.0583005720       46.1415975841       14.7495836648  W2        15165           0.0000000000
     43531     14511  TIP3      OH2           -58.3134005720       49.8276575841       11.3238736648  W2        15166           0.0000000000
     43532     14511  TIP3      H1            -57.3673405720       49.6833575841       11.3048236648  W2        15166           0.0000000000
     43533     14511  TIP3      H2            -58.4257705720       50.6119375841       11.8609936648  W2        15166           0.0000000000
     43534     14512  TIP3      OH2           -40.1155505720       50.4936275841       17.0062436648  W2        15167           0.0000000000
     43535     14512  TIP3      H1            -40.1648705720       49.5384375841       16.9690036648  W2        15167           0.0000000000
     43536     14512  TIP3      H2            -40.9423205720       50.7611575841       17.4076236648  W2        15167           0.0000000000
     43537     14513  TIP3      OH2           -49.1371505720       50.0675475841       15.8823836648  W2        15168           0.0000000000
     43538     14513  TIP3      H1            -49.0496905720       50.8940075841       16.3572936648  W2        15168           0.0000000000
     43539     14513  TIP3      H2            -50.0006405720       49.7379275841       16.1313136648  W2        15168           0.0000000000
     43540     14514  TIP3      OH2           -48.7225705720       53.8399175841        5.6884436648  W2        15169           0.0000000000
     43541     14514  TIP3      H1            -48.7979705720       53.7186375841        4.7419636648  W2        15169           0.0000000000
     43542     14514  TIP3      H2            -48.6897005720       54.7891875841        5.8069036648  W2        15169           0.0000000000
     43543     14515  TIP3      OH2           -55.0691905720       52.6286175841        7.4693436648  W2        15170           0.0000000000
     43544     14515  TIP3      H1            -54.9171505720       52.2806575841        8.3479936648  W2        15170           0.0000000000
     43545     14515  TIP3      H2            -55.9201505720       52.2723475841        7.2140636648  W2        15170           0.0000000000
     43546     14516  TIP3      OH2           -45.6209705720       52.9939375841        2.6906836648  W2        15171           0.0000000000
     43547     14516  TIP3      H1            -45.2461305720       52.2495475841        2.2199436648  W2        15171           0.0000000000
     43548     14516  TIP3      H2            -45.6166005720       52.7239975841        3.6090136648  W2        15171           0.0000000000
     43549     14517  TIP3      OH2           -45.9521605720       52.9196475841        5.4399036648  W2        15172           0.0000000000
     43550     14517  TIP3      H1            -46.8871805720       53.0198375841        5.6186036648  W2        15172           0.0000000000
     43551     14517  TIP3      H2            -45.6719705720       52.2102475841        6.0182236648  W2        15172           0.0000000000
     43552     14518  TIP3      OH2           -42.9635705720       41.9868775841       17.4864636648  W2        15173           0.0000000000
     43553     14518  TIP3      H1            -43.3708905720       42.4674375841       16.7657936648  W2        15173           0.0000000000
     43554     14518  TIP3      H2            -42.9230005720       41.0814775841       17.1785436648  W2        15173           0.0000000000
     43555     14519  TIP3      OH2           -55.8146205720       48.3708175841       15.4831336648  W2        15174           0.0000000000
     43556     14519  TIP3      H1            -55.5984905720       48.0093775841       16.3427136648  W2        15174           0.0000000000
     43557     14519  TIP3      H2            -56.6701505720       47.9961975841       15.2734836648  W2        15174           0.0000000000
     43558     14520  TIP3      OH2           -53.1958205720       36.8408675841       11.4785536648  W2        15175           0.0000000000
     43559     14520  TIP3      H1            -54.0574505720       36.7536875841       11.0708436648  W2        15175           0.0000000000
     43560     14520  TIP3      H2            -53.2182505720       37.6968775841       11.9063136648  W2        15175           0.0000000000
     43561     14521  TIP3      OH2           -48.5330405720       36.5629075841       14.8532536648  W2        15176           0.0000000000
     43562     14521  TIP3      H1            -48.1127305720       36.1476175841       15.6063136648  W2        15176           0.0000000000
     43563     14521  TIP3      H2            -49.4660805720       36.3842375841       14.9704536648  W2        15176           0.0000000000
     43564     14522  TIP3      OH2           -45.2065505720       40.3184275841       15.7067036648  W2        15177           0.0000000000
     43565     14522  TIP3      H1            -45.7206005720       40.1926475841       16.5043036648  W2        15177           0.0000000000
     43566     14522  TIP3      H2            -45.3620805720       41.2307375841       15.4623236648  W2        15177           0.0000000000
     43567     14523  TIP3      OH2           -44.4440605720       45.1794275841        1.4680036648  W2        15178           0.0000000000
     43568     14523  TIP3      H1            -44.4019805720       44.9568175841        0.5380036648  W2        15178           0.0000000000
     43569     14523  TIP3      H2            -43.5948505720       45.5781375841        1.6579936648  W2        15178           0.0000000000
     43570     14524  TIP3      OH2           -48.8713105720       39.0552475841        2.1383336648  W2        15179           0.0000000000
     43571     14524  TIP3      H1            -49.1248305720       39.0744075841        3.0611436648  W2        15179           0.0000000000
     43572     14524  TIP3      H2            -49.1281005720       38.1837875841        1.8369536648  W2        15179           0.0000000000
     43573     14525  TIP3      OH2           -53.1048105720       41.8063175841       12.5735736648  W2        15180           0.0000000000
     43574     14525  TIP3      H1            -53.7466005720       41.7660475841       13.2825836648  W2        15180           0.0000000000
     43575     14525  TIP3      H2            -53.0676105720       42.7327875841       12.3358736648  W2        15180           0.0000000000
     43576     14526  TIP3      OH2           -53.1079005720       42.0273275841        7.4855736648  W2        15181           0.0000000000
     43577     14526  TIP3      H1            -54.0006105720       41.6869375841        7.4269536648  W2        15181           0.0000000000
     43578     14526  TIP3      H2            -52.6572405720       41.6504175841        6.7298936648  W2        15181           0.0000000000
     43579     14527  TIP3      OH2           -47.5723505720       42.4433575841        6.3026536648  W2        15182           0.0000000000
     43580     14527  TIP3      H1            -47.9813205720       43.2582175841        6.0111336648  W2        15182           0.0000000000
     43581     14527  TIP3      H2            -46.8517305720       42.3033675841        5.6883636648  W2        15182           0.0000000000
     43582     14528  TIP3      OH2           -48.4701905720       42.6189975841       17.7907236648  W2        15183           0.0000000000
     43583     14528  TIP3      H1            -49.0328105720       41.9141575841       18.1115036648  W2        15183           0.0000000000
     43584     14528  TIP3      H2            -47.6438505720       42.4981875841       18.2584836648  W2        15183           0.0000000000
     43585     14529  TIP3      OH2           -46.5675805720       41.8893975841        9.1166236648  W2        15184           0.0000000000
     43586     14529  TIP3      H1            -46.7631305720       42.4950775841        8.4016836648  W2        15184           0.0000000000
     43587     14529  TIP3      H2            -46.3863205720       41.0559175841        8.6822536648  W2        15184           0.0000000000
     43588     14530  TIP3      OH2           -55.3547605720       42.1266675841       14.4407736648  W2        15185           0.0000000000
     43589     14530  TIP3      H1            -55.3928205720       42.5268275841       15.3094836648  W2        15185           0.0000000000
     43590     14530  TIP3      H2            -55.8456505720       41.3099075841       14.5310636648  W2        15185           0.0000000000
     43591     14531  TIP3      OH2           -51.9890205720       39.5008975841        1.2393736648  W2        15186           0.0000000000
     43592     14531  TIP3      H1            -52.4199505720       39.0559075841        1.9691136648  W2        15186           0.0000000000
     43593     14531  TIP3      H2            -52.7071505720       39.8725275841        0.7271236648  W2        15186           0.0000000000
     43594     14532  TIP3      OH2           -58.7466805720       39.2428475841        8.2912436648  W2        15187           0.0000000000
     43595     14532  TIP3      H1            -58.1159105720       39.2140575841        9.0106336648  W2        15187           0.0000000000
     43596     14532  TIP3      H2            -58.2972505720       38.8177175841        7.5608336648  W2        15187           0.0000000000
     43597     14533  TIP3      OH2           -57.4724705720       39.9890475841        3.7152836648  W2        15188           0.0000000000
     43598     14533  TIP3      H1            -56.9983005720       40.5800375841        3.1303736648  W2        15188           0.0000000000
     43599     14533  TIP3      H2            -58.1898305720       40.5193375841        4.0622936648  W2        15188           0.0000000000
     43600     14534  TIP3      OH2           -47.3036605720       43.5275275841       13.7878636648  W2        15189           0.0000000000
     43601     14534  TIP3      H1            -46.9801805720       42.8964975841       13.1449136648  W2        15189           0.0000000000
     43602     14534  TIP3      H2            -47.7437305720       42.9927475841       14.4486036648  W2        15189           0.0000000000
     43603     14535  TIP3      OH2           -50.5263705720       39.4550775841        8.5719836648  W2        15190           0.0000000000
     43604     14535  TIP3      H1            -51.4372605720       39.5117575841        8.8605836648  W2        15190           0.0000000000
     43605     14535  TIP3      H2            -50.0210805720       39.3946275841        9.3827036648  W2        15190           0.0000000000
     43606     14536  TIP3      OH2           -55.6980305720       41.0837075841        7.3987436648  W2        15191           0.0000000000
     43607     14536  TIP3      H1            -56.5872305720       41.1832575841        7.0587036648  W2        15191           0.0000000000
     43608     14536  TIP3      H2            -55.4015405720       40.2420075841        7.0525336648  W2        15191           0.0000000000
     43609     14537  TIP3      OH2           -52.0448505720       41.0839675841        5.0552036648  W2        15192           0.0000000000
     43610     14537  TIP3      H1            -51.1133005720       41.2129675841        5.2335136648  W2        15192           0.0000000000
     43611     14537  TIP3      H2            -52.2598205720       41.7533975841        4.4056736648  W2        15192           0.0000000000
     43612     14538  TIP3      OH2           -46.1211805720       38.6897075841       11.8361636648  W2        15193           0.0000000000
     43613     14538  TIP3      H1            -46.7980205720       38.8210175841       12.5001336648  W2        15193           0.0000000000
     43614     14538  TIP3      H2            -46.6066905720       38.5346575841       11.0259336648  W2        15193           0.0000000000
     43615     14539  TIP3      OH2           -53.3708305720       42.2781875841        2.6218136648  W2        15194           0.0000000000
     43616     14539  TIP3      H1            -53.9133205720       41.8985675841        1.9305736648  W2        15194           0.0000000000
     43617     14539  TIP3      H2            -52.5373405720       42.4726575841        2.1932236648  W2        15194           0.0000000000
     43618     14540  TIP3      OH2           -55.2356905720       46.8353775841       17.7209736648  W2        15196           0.0000000000
     43619     14540  TIP3      H1            -54.5034505720       47.0899675841       18.2824236648  W2        15196           0.0000000000
     43620     14540  TIP3      H2            -56.0158205720       47.0399175841       18.2365136648  W2        15196           0.0000000000
     43621     14541  TIP3      OH2           -49.2064005720       42.2423775841       10.4589436648  W2        15197           0.0000000000
     43622     14541  TIP3      H1            -48.6420605720       41.6960375841        9.9119036648  W2        15197           0.0000000000
     43623     14541  TIP3      H2            -49.3540605720       41.7205675841       11.2477036648  W2        15197           0.0000000000
     43624     14542  TIP3      OH2           -54.2044305720       38.3789875841        6.8774236648  W2        15198           0.0000000000
     43625     14542  TIP3      H1            -54.5214805720       37.4765175841        6.8419636648  W2        15198           0.0000000000
     43626     14542  TIP3      H2            -53.4230205720       38.3807275841        6.3245836648  W2        15198           0.0000000000
     43627     14543  TIP3      OH2           -50.5798105720       40.6309875841       12.8729836648  W2        15199           0.0000000000
     43628     14543  TIP3      H1            -51.4152805720       41.0849375841       12.9832236648  W2        15199           0.0000000000
     43629     14543  TIP3      H2            -50.0557505720       40.9068375841       13.6249736648  W2        15199           0.0000000000
     43630     14544  TIP3      OH2           -50.0355505720       46.8437575841        4.5576236648  W2        15200           0.0000000000
     43631     14544  TIP3      H1            -50.7804505720       46.3362875841        4.2354136648  W2        15200           0.0000000000
     43632     14544  TIP3      H2            -50.1698305720       46.8925575841        5.5041036648  W2        15200           0.0000000000
     43633     14545  TIP3      OH2           -42.8856605720       45.9765775841       13.3443836648  W2        15201           0.0000000000
     43634     14545  TIP3      H1            -42.2437805720       46.4332075841       12.8006036648  W2        15201           0.0000000000
     43635     14545  TIP3      H2            -43.7159705720       46.0898175841       12.8817936648  W2        15201           0.0000000000
     43636     14546  TIP3      OH2           -46.1378705720       39.6577475841        2.7568836648  W2        15202           0.0000000000
     43637     14546  TIP3      H1            -47.0764505720       39.7693075841        2.6057636648  W2        15202           0.0000000000
     43638     14546  TIP3      H2            -45.8406605720       40.5144375841        3.0634536648  W2        15202           0.0000000000
     43639     14547  TIP3      OH2           -48.5163405720       47.0280875841       15.7945336648  W2        15203           0.0000000000
     43640     14547  TIP3      H1            -48.8617305720       46.6463275841       16.6014936648  W2        15203           0.0000000000
     43641     14547  TIP3      H2            -48.7163305720       47.9614475841       15.8658236648  W2        15203           0.0000000000
     43642     14548  TIP3      OH2           -45.4195205720       41.5250175841        4.4176236648  W2        15204           0.0000000000
     43643     14548  TIP3      H1            -44.5276205720       41.3875175841        4.7367436648  W2        15204           0.0000000000
     43644     14548  TIP3      H2            -45.3631605720       42.3156275841        3.8809736648  W2        15204           0.0000000000
     43645     14549  TIP3      OH2           -54.9107205720       46.1387575841       10.3274136648  W2        15205           0.0000000000
     43646     14549  TIP3      H1            -54.1660005720       46.1363275841        9.7260636648  W2        15205           0.0000000000
     43647     14549  TIP3      H2            -54.8330605720       45.3151375841       10.8089236648  W2        15205           0.0000000000
     43648     14550  TIP3      OH2           -47.9101405720       48.3021875841        3.5830836648  W2        15206           0.0000000000
     43649     14550  TIP3      H1            -48.2053005720       49.1289775841        3.9645636648  W2        15206           0.0000000000
     43650     14550  TIP3      H2            -48.6131405720       47.6828775841        3.7792236648  W2        15206           0.0000000000
     43651     14551  TIP3      OH2           -57.9027505720       44.5994475841       15.6422636648  W2        15207           0.0000000000
     43652     14551  TIP3      H1            -57.6798905720       44.1814075841       16.4740136648  W2        15207           0.0000000000
     43653     14551  TIP3      H2            -58.5047405720       43.9869475841       15.2195436648  W2        15207           0.0000000000
     43654     14552  TIP3      OH2           -46.2659805720       49.4896375841       15.7450336648  W2        15209           0.0000000000
     43655     14552  TIP3      H1            -47.1665505720       49.6728975841       15.4774236648  W2        15209           0.0000000000
     43656     14552  TIP3      H2            -46.2318705720       49.7485675841       16.6659136648  W2        15209           0.0000000000
     43657     14553  TIP3      OH2           -40.5346505720       41.7344275841        4.1122936648  W2        15210           0.0000000000
     43658     14553  TIP3      H1            -41.0890205720       41.3382275841        3.4400436648  W2        15210           0.0000000000
     43659     14553  TIP3      H2            -40.4342905720       42.6449475841        3.8346236648  W2        15210           0.0000000000
     43660     14554  TIP3      OH2           -40.5714505720       47.5345975841       16.9494436648  W2        15211           0.0000000000
     43661     14554  TIP3      H1            -41.4226005720       47.7729775841       16.5820836648  W2        15211           0.0000000000
     43662     14554  TIP3      H2            -39.9811105720       47.5179175841       16.1961536648  W2        15211           0.0000000000
     43663     14555  TIP3      OH2           -42.2394805720       50.5204675841        4.5775036648  W2        15212           0.0000000000
     43664     14555  TIP3      H1            -42.6123705720       49.6948475841        4.8865636648  W2        15212           0.0000000000
     43665     14555  TIP3      H2            -41.9621305720       50.3374075841        3.6798436648  W2        15212           0.0000000000
     43666     14556  TIP3      OH2           -45.0790905720       45.3284175841       11.5986936648  W2        15213           0.0000000000
     43667     14556  TIP3      H1            -46.0074005720       45.0966075841       11.5716236648  W2        15213           0.0000000000
     43668     14556  TIP3      H2            -44.6279805720       44.5513975841       11.2685736648  W2        15213           0.0000000000
     43669     14557  TIP3      OH2           -52.5357805720       49.6565775841        7.7315636648  W2        15214           0.0000000000
     43670     14557  TIP3      H1            -52.0085605720       50.4300175841        7.5314436648  W2        15214           0.0000000000
     43671     14557  TIP3      H2            -53.4159305720       49.8814975841        7.4299636648  W2        15214           0.0000000000
     43672     14558  TIP3      OH2           -56.7810105720       44.5189875841        2.3188036648  W2        15215           0.0000000000
     43673     14558  TIP3      H1            -56.1650205720       45.1457075841        2.6982836648  W2        15215           0.0000000000
     43674     14558  TIP3      H2            -57.6427505720       44.8349675841        2.5904536648  W2        15215           0.0000000000
     43675     14559  TIP3      OH2           -51.1085505720       47.3195675841        7.3079936648  W2        15216           0.0000000000
     43676     14559  TIP3      H1            -51.3495505720       48.2450075841        7.3495236648  W2        15216           0.0000000000
     43677     14559  TIP3      H2            -51.8491905720       46.8606975841        7.7043836648  W2        15216           0.0000000000
     43678     14560  TIP3      OH2           -50.5938905720       51.4689275841       13.6231036648  W2        15217           0.0000000000
     43679     14560  TIP3      H1            -50.2314205720       52.3234875841       13.3895436648  W2        15217           0.0000000000
     43680     14560  TIP3      H2            -50.0623705720       51.1770875841       14.3637336648  W2        15217           0.0000000000
     43681     14561  TIP3      OH2           -52.4254705720       52.3413275841        6.8532136648  W2        15218           0.0000000000
     43682     14561  TIP3      H1            -53.3754205720       52.4470675841        6.9045436648  W2        15218           0.0000000000
     43683     14561  TIP3      H2            -52.0736605720       53.1620675841        7.1979636648  W2        15218           0.0000000000
     43684     14562  TIP3      OH2           -47.0498105720       47.5679975841       13.3236636648  W2        15219           0.0000000000
     43685     14562  TIP3      H1            -47.4756805720       47.3401675841       14.1500636648  W2        15219           0.0000000000
     43686     14562  TIP3      H2            -46.4692305720       46.8291775841       13.1411936648  W2        15219           0.0000000000
     43687     14563  TIP3      OH2           -44.8469205720       48.4970475841        2.3975636648  W2        15220           0.0000000000
     43688     14563  TIP3      H1            -44.4936105720       48.1170275841        3.2019136648  W2        15220           0.0000000000
     43689     14563  TIP3      H2            -45.7955705720       48.4035275841        2.4844936648  W2        15220           0.0000000000
     43690     14564  TIP3      OH2           -44.3913905720       52.1199475841       15.7931436648  W2        15221           0.0000000000
     43691     14564  TIP3      H1            -44.9930705720       51.5642375841       15.2977736648  W2        15221           0.0000000000
     43692     14564  TIP3      H2            -44.1100205720       52.7869275841       15.1668836648  W2        15221           0.0000000000
     43693     14565  TIP3      OH2           -40.3434805720       52.9762975841        2.5985836648  W2        15222           0.0000000000
     43694     14565  TIP3      H1            -39.5996905720       53.5623475841        2.4587436648  W2        15222           0.0000000000
     43695     14565  TIP3      H2            -41.0376705720       53.5448775841        2.9318236648  W2        15222           0.0000000000
     43696     14566  TIP3      OH2           -56.2688005720       39.3527175841       15.2004036648  W2        15223           0.0000000000
     43697     14566  TIP3      H1            -57.1615705720       39.6912575841       15.1328036648  W2        15223           0.0000000000
     43698     14566  TIP3      H2            -56.3675205720       38.4973275841       15.6184836648  W2        15223           0.0000000000
     43699     14567  TIP3      OH2           -43.9809905720       47.1692475841        4.6243536648  W2        15224           0.0000000000
     43700     14567  TIP3      H1            -44.2582305720       46.4411775841        5.1804636648  W2        15224           0.0000000000
     43701     14567  TIP3      H2            -43.0536905720       47.2884475841        4.8296136648  W2        15224           0.0000000000
     43702     14568  TIP3      OH2           -56.6176005720       51.1571575841       13.6353436648  W2        15225           0.0000000000
     43703     14568  TIP3      H1            -56.4005705720       50.2253975841       13.6043136648  W2        15225           0.0000000000
     43704     14568  TIP3      H2            -56.3712505720       51.4316575841       14.5186236648  W2        15225           0.0000000000
     43705     14569  TIP3      OH2           -50.7561405720       49.6086575841        0.8445636648  W2        15226           0.0000000000
     43706     14569  TIP3      H1            -50.5171605720       48.8604675841        0.2974536648  W2        15226           0.0000000000
     43707     14569  TIP3      H2            -51.0250105720       49.2208275841        1.6773436648  W2        15226           0.0000000000
     43708     14570  TIP3      OH2           -51.8190805720       49.1790375841        3.3008236648  W2        15227           0.0000000000
     43709     14570  TIP3      H1            -51.6722805720       48.6590175841        4.0909136648  W2        15227           0.0000000000
     43710     14570  TIP3      H2            -51.8219105720       50.0857975841        3.6074136648  W2        15227           0.0000000000
     43711     14571  TIP3      OH2           -55.3659705720       46.4313675841        3.8113636648  W2        15228           0.0000000000
     43712     14571  TIP3      H1            -56.0520405720       46.7836175841        4.3783336648  W2        15228           0.0000000000
     43713     14571  TIP3      H2            -54.8431805720       47.1943275841        3.5647936648  W2        15228           0.0000000000
     43714     14572  TIP3      OH2           -47.5344605720       39.0937475841       14.0902636648  W2        15229           0.0000000000
     43715     14572  TIP3      H1            -46.8356705720       39.1676175841       14.7402336648  W2        15229           0.0000000000
     43716     14572  TIP3      H2            -47.9153205720       38.2292475841       14.2445536648  W2        15229           0.0000000000
     43717     14573  TIP3      OH2           -46.7499705720       38.7459175841        5.1874936648  W2        15230           0.0000000000
     43718     14573  TIP3      H1            -46.5301405720       39.2174575841        4.3840336648  W2        15230           0.0000000000
     43719     14573  TIP3      H2            -46.1915705720       39.1401775841        5.8575536648  W2        15230           0.0000000000
     43720     14574  TIP3      OH2           -49.0813605720       50.8763975841        4.0502436648  W2        15231           0.0000000000
     43721     14574  TIP3      H1            -49.8977505720       51.3733675841        4.1026736648  W2        15231           0.0000000000
     43722     14574  TIP3      H2            -48.5517305720       51.3517475841        3.4101236648  W2        15231           0.0000000000
     43723     14575  TIP3      OH2           -49.5499805720       40.4737975841        6.0223336648  W2        15232           0.0000000000
     43724     14575  TIP3      H1            -48.7377205720       40.9781175841        6.0685036648  W2        15232           0.0000000000
     43725     14575  TIP3      H2            -49.7946805720       40.3287675841        6.9362936648  W2        15232           0.0000000000
     43726     14576  TIP3      OH2           -49.0143405720       41.4600675841       15.2069936648  W2        15233           0.0000000000
     43727     14576  TIP3      H1            -48.8953105720       42.0336075841       15.9640336648  W2        15233           0.0000000000
     43728     14576  TIP3      H2            -48.3588805720       40.7720075841       15.3217736648  W2        15233           0.0000000000
     43729     14577  TIP3      OH2           -48.6663105720       37.5550975841        6.9604436648  W2        15234           0.0000000000
     43730     14577  TIP3      H1            -49.0129605720       38.1721575841        7.6048736648  W2        15234           0.0000000000
     43731     14577  TIP3      H2            -48.0076205720       38.0556675841        6.4789936648  W2        15234           0.0000000000
     43732     14578  TIP3      OH2           -51.7430505720       51.9201175841        4.0319336648  W2        15235           0.0000000000
     43733     14578  TIP3      H1            -51.5821805720       52.7198675841        3.5311936648  W2        15235           0.0000000000
     43734     14578  TIP3      H2            -51.9402705720       52.2267175841        4.9169936648  W2        15235           0.0000000000
     43735     14579  TIP3      OH2           -53.0086105720       38.6180375841        3.6476936648  W2        15236           0.0000000000
     43736     14579  TIP3      H1            -53.0921305720       39.5063475841        3.9943336648  W2        15236           0.0000000000
     43737     14579  TIP3      H2            -52.1185805720       38.3527075841        3.8793736648  W2        15236           0.0000000000
     43738     14580  TIP3      OH2           -42.8097605720       39.3670975841       16.0419636648  W2        15237           0.0000000000
     43739     14580  TIP3      H1            -43.7261805720       39.6292675841       15.9543336648  W2        15237           0.0000000000
     43740     14580  TIP3      H2            -42.4742605720       39.3639975841       15.1454936648  W2        15237           0.0000000000
     43741     14581  TIP3      OH2           -44.2076605720       43.1171975841       10.1376936648  W2        15238           0.0000000000
     43742     14581  TIP3      H1            -45.0052205720       42.7022175841        9.8091936648  W2        15238           0.0000000000
     43743     14581  TIP3      H2            -43.7625505720       42.4265675841       10.6287436648  W2        15238           0.0000000000
     43744     14582  TIP3      OH2           -54.7500805720       49.0452575841        2.7081436648  W2        15239           0.0000000000
     43745     14582  TIP3      H1            -54.1579305720       49.7447375841        2.9843836648  W2        15239           0.0000000000
     43746     14582  TIP3      H2            -54.2907805720       48.6122075841        1.9886036648  W2        15239           0.0000000000
     43747     14583  TIP3      OH2           -56.4341605720       41.7095575841        1.8240836648  W2        15240           0.0000000000
     43748     14583  TIP3      H1            -56.4789005720       42.6488675841        2.0027836648  W2        15240           0.0000000000
     43749     14583  TIP3      H2            -57.3218405720       41.4740475841        1.5542936648  W2        15240           0.0000000000
     43750     14584  TIP3      OH2           -43.1212005720       52.3734475841       11.7600436648  W2        15241           0.0000000000
     43751     14584  TIP3      H1            -43.2767705720       53.0518875841       11.1029736648  W2        15241           0.0000000000
     43752     14584  TIP3      H2            -42.1885605720       52.4453775841       11.9631036648  W2        15241           0.0000000000
     43753     14585  TIP3      OH2           -55.6259605720       36.4912175841       10.4971836648  W2        15242           0.0000000000
     43754     14585  TIP3      H1            -55.8549805720       36.5504675841        9.5696836648  W2        15242           0.0000000000
     43755     14585  TIP3      H2            -56.0686205720       35.6997675841       10.8035936648  W2        15242           0.0000000000
     43756     14586  TIP3      OH2           -56.6956305720       50.4319275841        6.6577636648  W2        15243           0.0000000000
     43757     14586  TIP3      H1            -57.5277705720       50.9041975841        6.6849036648  W2        15243           0.0000000000
     43758     14586  TIP3      H2            -56.1498005720       50.9416875841        6.0590736648  W2        15243           0.0000000000
     43759     14587  TIP3      OH2           -48.7179605720       51.4717975841        0.9831636648  W2        15246           0.0000000000
     43760     14587  TIP3      H1            -49.3618605720       50.8406575841        1.3045336648  W2        15246           0.0000000000
     43761     14587  TIP3      H2            -47.9561305720       50.9405975841        0.7515136648  W2        15246           0.0000000000
     43762     14588  TIP3      OH2           -44.1136705720       51.2887875841        1.2169636648  W2        15248           0.0000000000
     43763     14588  TIP3      H1            -43.8306305720       50.4943075841        1.6696536648  W2        15248           0.0000000000
     43764     14588  TIP3      H2            -43.3738805720       51.5218875841        0.6560736648  W2        15248           0.0000000000
     43765     14589  TIP3      OH2           -53.1589405720       47.1982775841        1.0744536648  W2        15250           0.0000000000
     43766     14589  TIP3      H1            -53.0945305720       46.4042375841        1.6050936648  W2        15250           0.0000000000
     43767     14589  TIP3      H2            -52.5060205720       47.0795575841        0.3846536648  W2        15250           0.0000000000
     43768     14590  TIP3      OH2           -47.8066005720       48.2454475841        0.8102536648  W2        15252           0.0000000000
     43769     14590  TIP3      H1            -48.0751905720       48.4256575841        1.7111436648  W2        15252           0.0000000000
     43770     14590  TIP3      H2            -48.0130405720       47.3200675841        0.6788336648  W2        15252           0.0000000000
     43771     14591  TIP3      OH2           -45.1101805720       46.7402475841       15.7578636648  W2        15253           0.0000000000
     43772     14591  TIP3      H1            -44.3647005720       47.3286175841       15.6382636648  W2        15253           0.0000000000
     43773     14591  TIP3      H2            -45.8675005720       47.3222175841       15.8211736648  W2        15253           0.0000000000
     43774     14592  TIP3      OH2           -52.0095605720       45.1708975841        3.3802536648  W2        15255           0.0000000000
     43775     14592  TIP3      H1            -52.4693605720       44.6867275841        4.0661036648  W2        15255           0.0000000000
     43776     14592  TIP3      H2            -51.7546905720       44.5024375841        2.7443036648  W2        15255           0.0000000000
     43777     14593  TIP3      OH2           -52.7206305720       43.0636075841       15.7362136648  W2        15256           0.0000000000
     43778     14593  TIP3      H1            -53.3390205720       43.7382675841       16.0166836648  W2        15256           0.0000000000
     43779     14593  TIP3      H2            -52.3765105720       43.3849975841       14.9028336648  W2        15256           0.0000000000
     43780     14594  TIP3      OH2           -50.9385205720       43.4140775841        1.6425736648  W2        15257           0.0000000000
     43781     14594  TIP3      H1            -51.1190205720       43.2591975841        0.7154036648  W2        15257           0.0000000000
     43782     14594  TIP3      H2            -49.9884705720       43.5219475841        1.6873636648  W2        15257           0.0000000000
     43783     14595  TIP3      OH2           -41.5486905720       45.7684975841        1.0883836648  W2        15259           0.0000000000
     43784     14595  TIP3      H1            -41.8222105720       45.3440475841        0.2752136648  W2        15259           0.0000000000
     43785     14595  TIP3      H2            -41.5092805720       46.6999475841        0.8714236648  W2        15259           0.0000000000
     43786     14596  TIP3      OH2           -52.3812605720       40.4186875841       16.8185236648  W2        15260           0.0000000000
     43787     14596  TIP3      H1            -52.2311705720       39.6898175841       16.2164936648  W2        15260           0.0000000000
     43788     14596  TIP3      H2            -52.3790205720       41.1958575841       16.2597436648  W2        15260           0.0000000000
     43789     14597  TIP3      OH2           -51.9686905720       38.7882675841       14.3112636648  W2        15261           0.0000000000
     43790     14597  TIP3      H1            -51.4329405720       39.2399375841       13.6591936648  W2        15261           0.0000000000
     43791     14597  TIP3      H2            -52.8207305720       38.6802475841       13.8886736648  W2        15261           0.0000000000
     43792     14598  TIP3      OH2           -50.3868505720       44.2278875841       14.5507836648  W2        15262           0.0000000000
     43793     14598  TIP3      H1            -49.6363705720       44.0716375841       13.9775636648  W2        15262           0.0000000000
     43794     14598  TIP3      H2            -50.7260205720       45.0795475841       14.2753336648  W2        15262           0.0000000000
     43795     14599  TIP3      OH2           -44.6545105720       44.8315875841       17.6565836648  W2        15264           0.0000000000
     43796     14599  TIP3      H1            -44.9360105720       45.5410475841       17.0789636648  W2        15264           0.0000000000
     43797     14599  TIP3      H2            -43.7120805720       44.7588875841       17.5057036648  W2        15264           0.0000000000
     43798     14600  TIP3      OH2           -51.1631405720       36.2448375841       14.7426236648  W2        15266           0.0000000000
     43799     14600  TIP3      H1            -51.2611805720       37.1911575841       14.6372436648  W2        15266           0.0000000000
     43800     14600  TIP3      H2            -51.9055205720       35.8722175841       14.2669736648  W2        15266           0.0000000000
     43801     14601  TIP3      OH2           -47.1834305720       39.6937275841       17.3818136648  W2        15268           0.0000000000
     43802     14601  TIP3      H1            -48.1308905720       39.7256975841       17.5141436648  W2        15268           0.0000000000
     43803     14601  TIP3      H2            -46.8707605720       39.0684375841       18.0356336648  W2        15268           0.0000000000
     43804     14602  TIP3      OH2           -50.9413305720       35.5385775841       17.4139036648  W2        15271           0.0000000000
     43805     14602  TIP3      H1            -50.2294905720       34.8987975841       17.3998136648  W2        15271           0.0000000000
     43806     14602  TIP3      H2            -51.0422905720       35.8054075841       16.5002136648  W2        15271           0.0000000000
     43807     14603  TIP3      OH2           -51.0413505720       54.1044475841        2.6439336648  W2        15273           0.0000000000
     43808     14603  TIP3      H1            -50.1082805720       54.2623175841        2.7877736648  W2        15273           0.0000000000
     43809     14603  TIP3      H2            -51.3054705720       54.7797475841        2.0190836648  W2        15273           0.0000000000
     43810     14604  TIP3      OH2           -57.4728605720       48.7408275841        2.1267436648  W2        15274           0.0000000000
     43811     14604  TIP3      H1            -56.5589405720       48.8197175841        2.4001336648  W2        15274           0.0000000000
     43812     14604  TIP3      H2            -57.4655505720       48.0537875841        1.4603036648  W2        15274           0.0000000000
     43813     14605  TIP3      OH2           -58.8238005720       54.1336775841        7.2041336648  W2        15275           0.0000000000
     43814     14605  TIP3      H1            -59.4710905720       53.6718475841        6.6712536648  W2        15275           0.0000000000
     43815     14605  TIP3      H2            -58.4693405720       53.4620075841        7.7867536648  W2        15275           0.0000000000
     43816     14606  TIP3      OH2           -57.9538805720       52.2143775841        9.0087536648  W2        15276           0.0000000000
     43817     14606  TIP3      H1            -58.2882005720       51.3341075841        9.1807736648  W2        15276           0.0000000000
     43818     14606  TIP3      H2            -57.7316405720       52.5598775841        9.8733136648  W2        15276           0.0000000000
     43819     14607  TIP3      OH2           -40.4054005720       53.0240175841       11.9892336648  W2        15277           0.0000000000
     43820     14607  TIP3      H1            -40.4267305720       53.2088575841       12.9281736648  W2        15277           0.0000000000
     43821     14607  TIP3      H2            -39.7147805720       53.5924175841       11.6483736648  W2        15277           0.0000000000
     43822     14608  TIP3      OH2           -40.8421105720       52.5911275841       14.9111436648  W2        15278           0.0000000000
     43823     14608  TIP3      H1            -41.3292405720       51.8555375841       14.5398836648  W2        15278           0.0000000000
     43824     14608  TIP3      H2            -40.2928405720       52.1975175841       15.5890836648  W2        15278           0.0000000000
     43825     14609  TIP3      OH2           -41.0904105720       46.6373075841        5.0634236648  W2        15280           0.0000000000
     43826     14609  TIP3      H1            -40.2402705720       47.0583975841        5.1905836648  W2        15280           0.0000000000
     43827     14609  TIP3      H2            -41.0849005720       45.8973175841        5.6705636648  W2        15280           0.0000000000
     43828     14610  TIP3      OH2           -40.6958505720       44.6910475841        6.8869936648  W2        15281           0.0000000000
     43829     14610  TIP3      H1            -41.4223905720       44.2113075841        7.2847536648  W2        15281           0.0000000000
     43830     14610  TIP3      H2            -40.1145205720       44.8965175841        7.6191536648  W2        15281           0.0000000000
     43831     14611  TIP3      OH2           -40.9367305720       47.4757975841       11.8347536648  W2        15282           0.0000000000
     43832     14611  TIP3      H1            -40.1033105720       47.0977975841       11.5541136648  W2        15282           0.0000000000
     43833     14611  TIP3      H2            -40.8247005720       48.4189175841       11.7156636648  W2        15282           0.0000000000
     43834     14612  TIP3      OH2           -42.4505005720       50.3535475841       14.1415936648  W2        15283           0.0000000000
     43835     14612  TIP3      H1            -43.0979705720       50.6786975841       14.7671136648  W2        15283           0.0000000000
     43836     14612  TIP3      H2            -42.9681005720       49.9133175841       13.4674236648  W2        15283           0.0000000000
     43837     14613  TIP3      OH2           -40.4275405720       44.5918975841        3.2781236648  W2        15284           0.0000000000
     43838     14613  TIP3      H1            -40.9494305720       44.9483075841        2.5592136648  W2        15284           0.0000000000
     43839     14613  TIP3      H2            -40.4606205720       45.2666775841        3.9562136648  W2        15284           0.0000000000
     43840     14614  TIP3      OH2           -42.0786405720       41.8314575841        1.8288336648  W2        15285           0.0000000000
     43841     14614  TIP3      H1            -41.9822005720       42.4981575841        1.1488036648  W2        15285           0.0000000000
     43842     14614  TIP3      H2            -42.2186805720       41.0160875841        1.3473836648  W2        15285           0.0000000000
     43843     14615  TIP3      OH2           -42.9091705720       43.2116975841        7.4498636648  W2        15286           0.0000000000
     43844     14615  TIP3      H1            -43.0592905720       42.2665575841        7.4296436648  W2        15286           0.0000000000
     43845     14615  TIP3      H2            -43.2627205720       43.4928375841        8.2937736648  W2        15286           0.0000000000
     43846     14616  TIP3      OH2           -57.8739305720       45.2899175841       11.4602436648  W2        15287           0.0000000000
     43847     14616  TIP3      H1            -57.6896405720       45.2080875841       10.5245336648  W2        15287           0.0000000000
     43848     14616  TIP3      H2            -57.0246405720       45.1656175841       11.8838836648  W2        15287           0.0000000000
     43849     14617  TIP3      OH2           -42.0528805720       45.1820275841       17.0886936648  W2        15288           0.0000000000
     43850     14617  TIP3      H1            -41.4701505720       44.4472575841       17.2804136648  W2        15288           0.0000000000
     43851     14617  TIP3      H2            -41.4889505720       45.9540575841       17.1352736648  W2        15288           0.0000000000
     43852     14618  TIP3      OH2           -40.5561705720       43.0846075841       17.7732336648  W2        15289           0.0000000000
     43853     14618  TIP3      H1            -41.4195005720       42.7058175841       17.6077036648  W2        15289           0.0000000000
     43854     14618  TIP3      H2            -39.9518005720       42.3460875841       17.6988136648  W2        15289           0.0000000000
     43855     14619  TIP3      OH2           -42.8312605720       39.2394375841        0.9463836648  W2        15290           0.0000000000
     43856     14619  TIP3      H1            -42.2206805720       38.8681175841        1.5832036648  W2        15290           0.0000000000
     43857     14619  TIP3      H2            -43.6681105720       38.8181275841        1.1423836648  W2        15290           0.0000000000
     43858     14620  TIP3      OH2           -43.1986905720       40.7942775841        5.9123736648  W2        15291           0.0000000000
     43859     14620  TIP3      H1            -42.9189805720       39.8873175841        6.0365436648  W2        15291           0.0000000000
     43860     14620  TIP3      H2            -42.4395205720       41.2284275841        5.5232936648  W2        15291           0.0000000000
     43861     14621  TIP3      OH2           -42.5868605720       41.3760175841       11.3482636648  W2        15292           0.0000000000
     43862     14621  TIP3      H1            -41.6540605720       41.5880075841       11.3138636648  W2        15292           0.0000000000
     43863     14621  TIP3      H2            -42.8221105720       41.4772275841       12.2705636648  W2        15292           0.0000000000
     43864     14622  TIP3      OH2           -42.5576705720       42.1125475841       14.1242036648  W2        15293           0.0000000000
     43865     14622  TIP3      H1            -43.4005405720       42.3805875841       14.4901836648  W2        15293           0.0000000000
     43866     14622  TIP3      H2            -42.1152405720       42.9347375841       13.9133136648  W2        15293           0.0000000000
     43867     14623  TIP3      OH2           -58.2764505720       40.5604175841       17.6011236648  W2        15294           0.0000000000
     43868     14623  TIP3      H1            -57.3569605720       40.4382475841       17.8374336648  W2        15294           0.0000000000
     43869     14623  TIP3      H2            -58.7260005720       39.8103875841       17.9904736648  W2        15294           0.0000000000
     43870     14624  TIP3      OH2           -42.5852105720       38.0572075841        5.9605736648  W2        15296           0.0000000000
     43871     14624  TIP3      H1            -42.4027105720       37.6083575841        6.7860736648  W2        15296           0.0000000000
     43872     14624  TIP3      H2            -43.1849205720       37.4726475841        5.4970336648  W2        15296           0.0000000000
     43873     14625  TIP3      OH2           -57.0552005720       38.8725775841       10.4924136648  W2        15297           0.0000000000
     43874     14625  TIP3      H1            -56.6100405720       38.0808275841       10.7943836648  W2        15297           0.0000000000
     43875     14625  TIP3      H2            -56.5889005720       39.5890975841       10.9229736648  W2        15297           0.0000000000
     43876     14626  TIP3      OH2           -58.7511705720       41.8718775841       11.5614336648  W2        15298           0.0000000000
     43877     14626  TIP3      H1            -58.2591905720       41.6509275841       10.7706336648  W2        15298           0.0000000000
     43878     14626  TIP3      H2            -58.3890805720       42.7122175841       11.8423836648  W2        15298           0.0000000000
     43879     14627  TIP3      OH2           -40.7185905720       38.1250175841        2.4886036648  W2        15300           0.0000000000
     43880     14627  TIP3      H1            -40.3063305720       37.4035875841        2.0134036648  W2        15300           0.0000000000
     43881     14627  TIP3      H2            -40.0369405720       38.7944775841        2.5470336648  W2        15300           0.0000000000
     43882     14628  TIP3      OH2           -58.4375205720       38.1297875841        5.6156736648  W2        15301           0.0000000000
     43883     14628  TIP3      H1            -59.3626805720       38.3384475841        5.4862236648  W2        15301           0.0000000000
     43884     14628  TIP3      H2            -57.9835305720       38.6138675841        4.9259036648  W2        15301           0.0000000000
     43885     14629  TIP3      OH2           -43.6668005720       53.1139575841        7.5614136648  W2        15302           0.0000000000
     43886     14629  TIP3      H1            -43.0145105720       52.7661675841        6.9533236648  W2        15302           0.0000000000
     43887     14629  TIP3      H2            -43.1564205720       53.6022775841        8.2073836648  W2        15302           0.0000000000
     43888     14630  TIP3      OH2           -58.4739805720       36.8676875841       13.9599236648  W2        15303           0.0000000000
     43889     14630  TIP3      H1            -59.1389305720       36.6217175841       14.6030136648  W2        15303           0.0000000000
     43890     14630  TIP3      H2            -58.9168505720       37.4897275841       13.3827236648  W2        15303           0.0000000000
     43891     14631  TIP3      OH2           -53.3277605720       51.0172175841       14.3629036648  W2        15305           0.0000000000
     43892     14631  TIP3      H1            -53.7526505720       51.8270675841       14.0803636648  W2        15305           0.0000000000
     43893     14631  TIP3      H2            -52.4234805720       51.1026275841       14.0608836648  W2        15305           0.0000000000
     43894     14632  TIP3      OH2           -49.0166205720       52.4162175841       17.3222736648  W2        15306           0.0000000000
     43895     14632  TIP3      H1            -48.8318705720       52.0828275841       18.2003036648  W2        15306           0.0000000000
     43896     14632  TIP3      H2            -48.1701705720       52.7260775841       17.0001936648  W2        15306           0.0000000000
     43897     14633  TIP3      OH2           -46.6715805720       53.7021075841       16.5664136648  W2        15307           0.0000000000
     43898     14633  TIP3      H1            -45.9946905720       53.0693375841       16.3263336648  W2        15307           0.0000000000
     43899     14633  TIP3      H2            -46.3497005720       54.1031575841       17.3737436648  W2        15307           0.0000000000
     43900     14634  TIP3      OH2           -41.7542005720       36.2916575841       15.6459136648  W2        15308           0.0000000000
     43901     14634  TIP3      H1            -42.5668505720       36.6166875841       15.2583836648  W2        15308           0.0000000000
     43902     14634  TIP3      H2            -41.5213505720       35.5315075841       15.1128236648  W2        15308           0.0000000000
     43903     14635  TIP3      OH2           -55.9260905720       54.2736075841       14.4104336648  W2        15309           0.0000000000
     43904     14635  TIP3      H1            -56.6464505720       54.7137075841       13.9592036648  W2        15309           0.0000000000
     43905     14635  TIP3      H2            -56.2916905720       54.0230775841       15.2588336648  W2        15309           0.0000000000
     43906     14636  TIP3      OH2           -53.4588305720       53.8739975841       13.4401536648  W2        15310           0.0000000000
     43907     14636  TIP3      H1            -54.3236105720       53.9458475841       13.8441636648  W2        15310           0.0000000000
     43908     14636  TIP3      H2            -53.5139305720       54.4207275841       12.6564036648  W2        15310           0.0000000000
     43909     14637  TIP3      OH2           -48.7482705720       53.7618875841       12.6157536648  W2        15311           0.0000000000
     43910     14637  TIP3      H1            -49.2048705720       54.2908575841       11.9615936648  W2        15311           0.0000000000
     43911     14637  TIP3      H2            -48.5854705720       54.3650275841       13.3409836648  W2        15311           0.0000000000
     43912     14638  TIP3      OH2           -46.4206405720       52.6398475841       13.5607836648  W2        15312           0.0000000000
     43913     14638  TIP3      H1            -47.3252705720       52.8048675841       13.2949936648  W2        15312           0.0000000000
     43914     14638  TIP3      H2            -45.9917805720       53.4930675841       13.4951236648  W2        15312           0.0000000000
     43915     14639  TIP3      OH2           -43.8164505720       54.2097575841       13.8555636648  W2        15313           0.0000000000
     43916     14639  TIP3      H1            -43.9982505720       55.1256475841       13.6450536648  W2        15313           0.0000000000
     43917     14639  TIP3      H2            -43.6396705720       53.7994675841       13.0090236648  W2        15313           0.0000000000
     43918     14640  TIP3      OH2           -56.5112805720       52.8968575841       11.3206136648  W2        15314           0.0000000000
     43919     14640  TIP3      H1            -56.5296805720       52.4713675841       12.1778436648  W2        15314           0.0000000000
     43920     14640  TIP3      H2            -55.7064905720       52.5783575841       10.9118336648  W2        15314           0.0000000000
     43921     14641  TIP3      OH2           -54.3699705720       51.6067275841        9.9756036648  W2        15315           0.0000000000
     43922     14641  TIP3      H1            -54.5889005720       50.6904675841       10.1452036648  W2        15315           0.0000000000
     43923     14641  TIP3      H2            -53.5457505720       51.7467675841       10.4417436648  W2        15315           0.0000000000
     43924     14642  TIP3      OH2           -51.8327205720       52.0766575841       10.8244036648  W2        15316           0.0000000000
     43925     14642  TIP3      H1            -51.6201505720       51.1885575841       10.5374936648  W2        15316           0.0000000000
     43926     14642  TIP3      H2            -51.7682105720       52.0424275841       11.7788036648  W2        15316           0.0000000000
     43927     14643  TIP3      OH2           -48.3243505720       37.7407175841        9.9687336648  W2        15317           0.0000000000
     43928     14643  TIP3      H1            -48.9986705720       37.1112775841       10.2243136648  W2        15317           0.0000000000
     43929     14643  TIP3      H2            -47.7604305720       37.2566075841        9.3655236648  W2        15317           0.0000000000
     43930     14644  TIP3      OH2           -43.1816305720       35.8481175841       10.0814436648  W2        15318           0.0000000000
     43931     14644  TIP3      H1            -42.5778705720       36.3956575841        9.5795436648  W2        15318           0.0000000000
     43932     14644  TIP3      H2            -44.0514305720       36.1671575841        9.8408536648  W2        15318           0.0000000000
     43933     14645  TIP3      OH2           -41.4545905720       36.9869875841        8.4145336648  W2        15319           0.0000000000
     43934     14645  TIP3      H1            -40.8428405720       36.4725575841        7.8878936648  W2        15319           0.0000000000
     43935     14645  TIP3      H2            -41.0722505720       37.8641975841        8.4379736648  W2        15319           0.0000000000
     43936     14646  TIP3      OH2           -55.9976005720       36.3747475841        7.7907236648  W2        15320           0.0000000000
     43937     14646  TIP3      H1            -56.7746205720       36.1402375841        7.2833136648  W2        15320           0.0000000000
     43938     14646  TIP3      H2            -55.4672405720       35.5779575841        7.7995236648  W2        15320           0.0000000000
     43939     14647  TIP3      OH2           -57.1612605720       36.1725575841        3.5943336648  W2        15321           0.0000000000
     43940     14647  TIP3      H1            -56.7221905720       36.7836075841        3.0026836648  W2        15321           0.0000000000
     43941     14647  TIP3      H2            -57.7950205720       36.7109675841        4.0683336648  W2        15321           0.0000000000
     43942     14648  TIP3      OH2           -51.4183405720       36.3014575841        7.6040336648  W2        15322           0.0000000000
     43943     14648  TIP3      H1            -50.5440005720       36.6898875841        7.5744636648  W2        15322           0.0000000000
     43944     14648  TIP3      H2            -51.5542605720       36.0862375841        8.5267536648  W2        15322           0.0000000000
     43945     14649  TIP3      OH2           -45.8615005720       36.3314375841        9.2532036648  W2        15323           0.0000000000
     43946     14649  TIP3      H1            -45.7853405720       36.4265975841        8.3038036648  W2        15323           0.0000000000
     43947     14649  TIP3      H2            -46.1365805720       35.4237275841        9.3821136648  W2        15323           0.0000000000
     43948     14650  TIP3      OH2           -44.5082405720       36.3572175841        4.9457036648  W2        15324           0.0000000000
     43949     14650  TIP3      H1            -45.2111305720       36.9721375841        4.7358436648  W2        15324           0.0000000000
     43950     14650  TIP3      H2            -44.9531005720       35.5198875841        5.0767936648  W2        15324           0.0000000000
     43951     14651  TIP3      OH2           -57.2603105720       52.1207775841        4.4918436648  W2        15325           0.0000000000
     43952     14651  TIP3      H1            -57.9453205720       52.0826675841        3.8243536648  W2        15325           0.0000000000
     43953     14651  TIP3      H2            -57.2565905720       53.0335375841        4.7800536648  W2        15325           0.0000000000
     43954     14652  TIP3      OH2           -55.3003505720       38.0887075841        2.0367436648  W2        15326           0.0000000000
     43955     14652  TIP3      H1            -54.8090105720       37.4589475841        1.5092936648  W2        15326           0.0000000000
     43956     14652  TIP3      H2            -54.6767205720       38.3846475841        2.6998636648  W2        15326           0.0000000000
     43957     14653  TIP3      OH2           -50.2743405720       38.3818575841        4.4937936648  W2        15327           0.0000000000
     43958     14653  TIP3      H1            -50.0962105720       37.7351775841        5.1766536648  W2        15327           0.0000000000
     43959     14653  TIP3      H2            -50.3277205720       39.2156275841        4.9609036648  W2        15327           0.0000000000
     43960     14654  TIP3      OH2           -48.3959605720       53.3302675841        2.8894636648  W2        15328           0.0000000000
     43961     14654  TIP3      H1            -47.5299405720       53.6970075841        2.7112836648  W2        15328           0.0000000000
     43962     14654  TIP3      H2            -48.6426805720       52.8910675841        2.0755436648  W2        15328           0.0000000000
     43963     14655  TIP3      OH2           -41.6870005720       52.8932975841        5.5685736648  W2        15329           0.0000000000
     43964     14655  TIP3      H1            -41.8812905720       52.1455075841        5.0035336648  W2        15329           0.0000000000
     43965     14655  TIP3      H2            -41.7259905720       53.6513075841        4.9853636648  W2        15329           0.0000000000
     43966     14656  TIP3      OH2           -56.0398005720       36.8889375841       17.3083436648  W2        15330           0.0000000000
     43967     14656  TIP3      H1            -56.4059805720       36.1231975841       17.7508136648  W2        15330           0.0000000000
     43968     14656  TIP3      H2            -55.1269505720       36.9179575841       17.5948536648  W2        15330           0.0000000000
     43969     14657  TIP3      OH2           -55.4421905720       53.0408575841        1.5170536648  W2        15332           0.0000000000
     43970     14657  TIP3      H1            -55.7097305720       53.3271475841        2.3903636648  W2        15332           0.0000000000
     43971     14657  TIP3      H2            -54.6709305720       52.4947775841        1.6693036648  W2        15332           0.0000000000
     43972     14658  TIP3      OH2           -42.4693805720       51.6445375841       17.7187536648  W2        15334           0.0000000000
     43973     14658  TIP3      H1            -43.2511905720       51.4583375841       17.1988136648  W2        15334           0.0000000000
     43974     14658  TIP3      H2            -42.5413905720       52.5739675841       17.9360036648  W2        15334           0.0000000000
     43975     14659  TIP3      OH2           -28.0633405720       45.5309775841        7.7494736648  W2        15335           0.0000000000
     43976     14659  TIP3      H1            -27.9742305720       46.4747975841        7.6171836648  W2        15335           0.0000000000
     43977     14659  TIP3      H2            -28.7015805720       45.2556175841        7.0914136648  W2        15335           0.0000000000
     43978     14660  TIP3      OH2           -29.1302105720       44.7860475841       11.1682936648  W2        15336           0.0000000000
     43979     14660  TIP3      H1            -29.1684605720       44.1396775841       11.8732536648  W2        15336           0.0000000000
     43980     14660  TIP3      H2            -29.4525605720       44.3194875841       10.3971636648  W2        15336           0.0000000000
     43981     14661  TIP3      OH2           -36.7617105720       44.4002575841       12.7612836648  W2        15337           0.0000000000
     43982     14661  TIP3      H1            -36.7205005720       43.7745875841       13.4845236648  W2        15337           0.0000000000
     43983     14661  TIP3      H2            -36.0589405720       45.0241175841       12.9433236648  W2        15337           0.0000000000
     43984     14662  TIP3      OH2           -25.4241905720       47.7250875841        9.4698036648  W2        15338           0.0000000000
     43985     14662  TIP3      H1            -25.8649205720       47.0046875841        9.9203636648  W2        15338           0.0000000000
     43986     14662  TIP3      H2            -25.4372205720       48.4458075841       10.0995736648  W2        15338           0.0000000000
     43987     14663  TIP3      OH2           -35.8384005720       48.8501475841       11.2961936648  W2        15339           0.0000000000
     43988     14663  TIP3      H1            -36.2078805720       48.0481975841       10.9266236648  W2        15339           0.0000000000
     43989     14663  TIP3      H2            -34.8972905720       48.6816375841       11.3425336648  W2        15339           0.0000000000
     43990     14664  TIP3      OH2           -39.2283505720       42.5104075841        6.6890736648  W2        15340           0.0000000000
     43991     14664  TIP3      H1            -39.6760105720       43.3562775841        6.6707236648  W2        15340           0.0000000000
     43992     14664  TIP3      H2            -39.7892305720       41.9308275841        6.1735836648  W2        15340           0.0000000000
     43993     14665  TIP3      OH2           -38.5177405720       44.6723675841        8.8148736648  W2        15341           0.0000000000
     43994     14665  TIP3      H1            -38.3043905720       43.9025275841        9.3421736648  W2        15341           0.0000000000
     43995     14665  TIP3      H2            -37.7799805720       44.7620375841        8.2116336648  W2        15341           0.0000000000
     43996     14666  TIP3      OH2           -28.3126405720       52.8292575841        9.6818436648  W2        15342           0.0000000000
     43997     14666  TIP3      H1            -27.6930005720       52.1527275841        9.4087636648  W2        15342           0.0000000000
     43998     14666  TIP3      H2            -28.5209005720       52.6113375841       10.5903336648  W2        15342           0.0000000000
     43999     14667  TIP3      OH2           -30.7407705720       47.2181875841       11.5743936648  W2        15343           0.0000000000
     44000     14667  TIP3      H1            -30.4369805720       46.5323275841       10.9798036648  W2        15343           0.0000000000
     44001     14667  TIP3      H2            -30.0193705720       47.3370575841       12.1921936648  W2        15343           0.0000000000
     44002     14668  TIP3      OH2           -22.0777905720       38.8197175841       12.4350136648  W2        15344           0.0000000000
     44003     14668  TIP3      H1            -22.0285705720       39.4298375841       13.1709236648  W2        15344           0.0000000000
     44004     14668  TIP3      H2            -21.6522805720       39.2808075841       11.7121236648  W2        15344           0.0000000000
     44005     14669  TIP3      OH2           -27.6000705720       41.6124275841       11.9018736648  W2        15345           0.0000000000
     44006     14669  TIP3      H1            -27.4574805720       40.6661275841       11.9220336648  W2        15345           0.0000000000
     44007     14669  TIP3      H2            -27.7061705720       41.8194075841       10.9733636648  W2        15345           0.0000000000
     44008     14670  TIP3      OH2           -34.4452405720       39.7140675841        9.1743536648  W2        15346           0.0000000000
     44009     14670  TIP3      H1            -34.4021305720       40.5739175841        8.7559836648  W2        15346           0.0000000000
     44010     14670  TIP3      H2            -34.9028305720       39.1615375841        8.5406736648  W2        15346           0.0000000000
     44011     14671  TIP3      OH2           -26.7229705720       39.8446275841        7.5751836648  W2        15347           0.0000000000
     44012     14671  TIP3      H1            -26.0765405720       39.5159475841        8.1999436648  W2        15347           0.0000000000
     44013     14671  TIP3      H2            -26.2130305720       40.3625275841        6.9523236648  W2        15347           0.0000000000
     44014     14672  TIP3      OH2           -37.8250905720       42.1106475841        9.9364936648  W2        15348           0.0000000000
     44015     14672  TIP3      H1            -37.1714305720       41.5608175841       10.3685036648  W2        15348           0.0000000000
     44016     14672  TIP3      H2            -37.8011605720       41.8365475841        9.0196936648  W2        15348           0.0000000000
     44017     14673  TIP3      OH2           -32.6686405720       43.6607775841        9.1516436648  W2        15349           0.0000000000
     44018     14673  TIP3      H1            -32.0525405720       43.1343175841        9.6610436648  W2        15349           0.0000000000
     44019     14673  TIP3      H2            -33.2547605720       43.0206475841        8.7480036648  W2        15349           0.0000000000
     44020     14674  TIP3      OH2           -21.6863305720       40.2976375841       14.6709936648  W2        15350           0.0000000000
     44021     14674  TIP3      H1            -22.3748705720       40.9557075841       14.5756536648  W2        15350           0.0000000000
     44022     14674  TIP3      H2            -21.6708705720       40.1004275841       15.6075336648  W2        15350           0.0000000000
     44023     14675  TIP3      OH2           -35.6350505720       38.6319075841       13.2484336648  W2        15351           0.0000000000
     44024     14675  TIP3      H1            -35.8538805720       39.1619675841       12.4820336648  W2        15351           0.0000000000
     44025     14675  TIP3      H2            -36.3029605720       38.8584575841       13.8955736648  W2        15351           0.0000000000
     44026     14676  TIP3      OH2           -28.2660705720       48.1320175841        6.7923436648  W2        15352           0.0000000000
     44027     14676  TIP3      H1            -28.5615605720       47.8092475841        5.9410336648  W2        15352           0.0000000000
     44028     14676  TIP3      H2            -28.5902905720       49.0316875841        6.8336036648  W2        15352           0.0000000000
     44029     14677  TIP3      OH2           -33.0659105720       46.3074775841       13.5358036648  W2        15353           0.0000000000
     44030     14677  TIP3      H1            -33.8060005720       46.9056275841       13.6393236648  W2        15353           0.0000000000
     44031     14677  TIP3      H2            -32.3519605720       46.8614375841       13.2201636648  W2        15353           0.0000000000
     44032     14678  TIP3      OH2           -24.9591305720       39.1355575841        9.5557736648  W2        15354           0.0000000000
     44033     14678  TIP3      H1            -25.1743305720       38.3698975841       10.0883736648  W2        15354           0.0000000000
     44034     14678  TIP3      H2            -24.3033905720       39.6080175841       10.0686236648  W2        15354           0.0000000000
     44035     14679  TIP3      OH2           -36.0413205720       40.5240875841       11.2006536648  W2        15355           0.0000000000
     44036     14679  TIP3      H1            -35.4276905720       41.1568475841       11.5738936648  W2        15355           0.0000000000
     44037     14679  TIP3      H2            -35.5292505720       40.0515875841       10.5443436648  W2        15355           0.0000000000
     44038     14680  TIP3      OH2           -34.6584805720       48.2717775841       14.3229536648  W2        15356           0.0000000000
     44039     14680  TIP3      H1            -34.6637205720       49.1511275841       13.9448836648  W2        15356           0.0000000000
     44040     14680  TIP3      H2            -35.5120705720       48.1881875841       14.7479436648  W2        15356           0.0000000000
     44041     14681  TIP3      OH2           -38.5373905720       47.9425675841        5.1048836648  W2        15357           0.0000000000
     44042     14681  TIP3      H1            -38.8093005720       48.1716675841        4.2161736648  W2        15357           0.0000000000
     44043     14681  TIP3      H2            -38.4918205720       48.7804475841        5.5654136648  W2        15357           0.0000000000
     44044     14682  TIP3      OH2           -24.9124205720       49.5641575841       11.8177336648  W2        15358           0.0000000000
     44045     14682  TIP3      H1            -25.8540505720       49.6225475841       11.9794236648  W2        15358           0.0000000000
     44046     14682  TIP3      H2            -24.6358105720       50.4702075841       11.6807036648  W2        15358           0.0000000000
     44047     14683  TIP3      OH2           -24.6117205720       37.8506875841       13.2351236648  W2        15359           0.0000000000
     44048     14683  TIP3      H1            -25.3478005720       38.4613975841       13.1972536648  W2        15359           0.0000000000
     44049     14683  TIP3      H2            -23.9283205720       38.2655875841       12.7087636648  W2        15359           0.0000000000
     44050     14684  TIP3      OH2           -31.6085805720       35.9374175841       10.7009236648  W2        15360           0.0000000000
     44051     14684  TIP3      H1            -31.7261605720       34.9890175841       10.6467536648  W2        15360           0.0000000000
     44052     14684  TIP3      H2            -32.4635705720       36.2700275841       10.9740336648  W2        15360           0.0000000000
     44053     14685  TIP3      OH2           -26.6603005720       51.3455075841        8.4428936648  W2        15361           0.0000000000
     44054     14685  TIP3      H1            -26.2350705720       50.6382975841        7.9578536648  W2        15361           0.0000000000
     44055     14685  TIP3      H2            -26.3433005720       52.1467775841        8.0261136648  W2        15361           0.0000000000
     44056     14686  TIP3      OH2           -25.5006505720       49.2463575841        6.9515536648  W2        15362           0.0000000000
     44057     14686  TIP3      H1            -25.7581705720       48.5563675841        6.3401436648  W2        15362           0.0000000000
     44058     14686  TIP3      H2            -25.4295705720       48.8034775841        7.7971436648  W2        15362           0.0000000000
     44059     14687  TIP3      OH2           -23.8146305720       47.8130275841       15.4289036648  W2        15363           0.0000000000
     44060     14687  TIP3      H1            -23.6750005720       47.2212775841       14.6896036648  W2        15363           0.0000000000
     44061     14687  TIP3      H2            -23.6473505720       48.6856175841       15.0727836648  W2        15363           0.0000000000
     44062     14688  TIP3      OH2           -29.3420905720       44.7749775841        5.2015036648  W2        15364           0.0000000000
     44063     14688  TIP3      H1            -30.0535405720       45.3099475841        4.8495536648  W2        15364           0.0000000000
     44064     14688  TIP3      H2            -28.6511305720       44.8301875841        4.5413936648  W2        15364           0.0000000000
     44065     14689  TIP3      OH2           -29.2881705720       43.2324075841        2.2400036648  W2        15365           0.0000000000
     44066     14689  TIP3      H1            -28.5871805720       43.2550975841        2.8914036648  W2        15365           0.0000000000
     44067     14689  TIP3      H2            -28.9858805720       42.6043775841        1.5839336648  W2        15365           0.0000000000
     44068     14690  TIP3      OH2           -21.9727005720       44.1528275841       13.4949436648  W2        15366           0.0000000000
     44069     14690  TIP3      H1            -22.6252905720       44.8473875841       13.5840336648  W2        15366           0.0000000000
     44070     14690  TIP3      H2            -21.5076705720       44.3629175841       12.6851036648  W2        15366           0.0000000000
     44071     14691  TIP3      OH2           -25.9363205720       44.9843075841        6.1530936648  W2        15367           0.0000000000
     44072     14691  TIP3      H1            -26.6682205720       45.2126775841        6.7261536648  W2        15367           0.0000000000
     44073     14691  TIP3      H2            -25.4891005720       44.2705775841        6.6078436648  W2        15367           0.0000000000
     44074     14692  TIP3      OH2           -26.0389705720       43.1585675841       15.2207936648  W2        15368           0.0000000000
     44075     14692  TIP3      H1            -25.9590605720       43.9220075841       15.7926436648  W2        15368           0.0000000000
     44076     14692  TIP3      H2            -26.6402005720       43.4378075841       14.5303036648  W2        15368           0.0000000000
     44077     14693  TIP3      OH2           -34.2909505720       45.6149275841        8.0355936648  W2        15369           0.0000000000
     44078     14693  TIP3      H1            -34.6214305720       45.2442675841        7.2172936648  W2        15369           0.0000000000
     44079     14693  TIP3      H2            -33.7025405720       44.9443275841        8.3824236648  W2        15369           0.0000000000
     44080     14694  TIP3      OH2           -32.9242005720       49.0429875841       10.7168136648  W2        15370           0.0000000000
     44081     14694  TIP3      H1            -33.0190705720       48.4642975841        9.9602736648  W2        15370           0.0000000000
     44082     14694  TIP3      H2            -32.1948405720       48.6715575841       11.2130936648  W2        15370           0.0000000000
     44083     14695  TIP3      OH2           -33.9244005720       44.3834875841       11.6690936648  W2        15371           0.0000000000
     44084     14695  TIP3      H1            -33.3591505720       44.5049075841       10.9062136648  W2        15371           0.0000000000
     44085     14695  TIP3      H2            -33.6055105720       45.0209875841       12.3079436648  W2        15371           0.0000000000
     44086     14696  TIP3      OH2           -27.6151805720       49.8866775841       12.4031436648  W2        15372           0.0000000000
     44087     14696  TIP3      H1            -27.8555205720       50.5489875841       13.0510636648  W2        15372           0.0000000000
     44088     14696  TIP3      H2            -27.8133605720       49.0521975841       12.8281036648  W2        15372           0.0000000000
     44089     14697  TIP3      OH2           -33.0443305720       48.7827575841       16.3862836648  W2        15373           0.0000000000
     44090     14697  TIP3      H1            -33.3555805720       49.5650775841       16.8416036648  W2        15373           0.0000000000
     44091     14697  TIP3      H2            -33.6943105720       48.6296675841       15.7004836648  W2        15373           0.0000000000
     44092     14698  TIP3      OH2           -27.0653705720       44.1465975841        3.8382136648  W2        15374           0.0000000000
     44093     14698  TIP3      H1            -26.4858205720       44.2966275841        4.5851036648  W2        15374           0.0000000000
     44094     14698  TIP3      H2            -26.6513705720       44.6173375841        3.1148536648  W2        15374           0.0000000000
     44095     14699  TIP3      OH2           -36.1243405720       44.9808675841       15.6148536648  W2        15375           0.0000000000
     44096     14699  TIP3      H1            -36.0540205720       45.6315475841       16.3133536648  W2        15375           0.0000000000
     44097     14699  TIP3      H2            -37.0151205720       45.0836175841       15.2799436648  W2        15375           0.0000000000
     44098     14700  TIP3      OH2           -29.3388805720       50.8834475841        7.2735236648  W2        15376           0.0000000000
     44099     14700  TIP3      H1            -28.8651205720       51.1790775841        8.0509436648  W2        15376           0.0000000000
     44100     14700  TIP3      H2            -29.9019505720       51.6216075841        7.0404836648  W2        15376           0.0000000000
     44101     14701  TIP3      OH2           -34.8047405720       50.8542575841       17.1496636648  W2        15377           0.0000000000
     44102     14701  TIP3      H1            -34.7972105720       50.7182275841       16.2022136648  W2        15377           0.0000000000
     44103     14701  TIP3      H2            -35.7207005720       50.7370675841       17.4016636648  W2        15377           0.0000000000
     44104     14702  TIP3      OH2           -23.3665305720       35.8966375841        3.6511836648  W2        15378           0.0000000000
     44105     14702  TIP3      H1            -24.2664605720       36.0355375841        3.9462436648  W2        15378           0.0000000000
     44106     14702  TIP3      H2            -23.1146905720       36.7280975841        3.2493536648  W2        15378           0.0000000000
     44107     14703  TIP3      OH2           -35.3006805720       44.6843575841        5.6248736648  W2        15379           0.0000000000
     44108     14703  TIP3      H1            -35.5925505720       45.4525275841        5.1340036648  W2        15379           0.0000000000
     44109     14703  TIP3      H2            -35.9751605720       44.0249775841        5.4620136648  W2        15379           0.0000000000
     44110     14704  TIP3      OH2           -22.1773905720       50.2628775841        2.0275736648  W2        15380           0.0000000000
     44111     14704  TIP3      H1            -22.1040405720       51.2018975841        2.1981036648  W2        15380           0.0000000000
     44112     14704  TIP3      H2            -21.2718805720       49.9577375841        1.9713036648  W2        15380           0.0000000000
     44113     14705  TIP3      OH2           -39.2076705720       47.0472775841       14.4398536648  W2        15381           0.0000000000
     44114     14705  TIP3      H1            -39.7088305720       47.0192175841       13.6248236648  W2        15381           0.0000000000
     44115     14705  TIP3      H2            -39.2023005720       46.1415975841       14.7495836648  W2        15381           0.0000000000
     44116     14706  TIP3      OH2           -39.4574005720       49.8276575841       11.3238736648  W2        15382           0.0000000000
     44117     14706  TIP3      H1            -38.5113405720       49.6833575841       11.3048236648  W2        15382           0.0000000000
     44118     14706  TIP3      H2            -39.5697705720       50.6119375841       11.8609936648  W2        15382           0.0000000000
     44119     14707  TIP3      OH2           -21.2595505720       50.4936275841       17.0062436648  W2        15383           0.0000000000
     44120     14707  TIP3      H1            -21.3088705720       49.5384375841       16.9690036648  W2        15383           0.0000000000
     44121     14707  TIP3      H2            -22.0863205720       50.7611575841       17.4076236648  W2        15383           0.0000000000
     44122     14708  TIP3      OH2           -30.2811505720       50.0675475841       15.8823836648  W2        15384           0.0000000000
     44123     14708  TIP3      H1            -30.1936905720       50.8940075841       16.3572936648  W2        15384           0.0000000000
     44124     14708  TIP3      H2            -31.1446405720       49.7379275841       16.1313136648  W2        15384           0.0000000000
     44125     14709  TIP3      OH2           -29.8665705720       53.8399175841        5.6884436648  W2        15385           0.0000000000
     44126     14709  TIP3      H1            -29.9419705720       53.7186375841        4.7419636648  W2        15385           0.0000000000
     44127     14709  TIP3      H2            -29.8337005720       54.7891875841        5.8069036648  W2        15385           0.0000000000
     44128     14710  TIP3      OH2           -36.2131905720       52.6286175841        7.4693436648  W2        15386           0.0000000000
     44129     14710  TIP3      H1            -36.0611505720       52.2806575841        8.3479936648  W2        15386           0.0000000000
     44130     14710  TIP3      H2            -37.0641505720       52.2723475841        7.2140636648  W2        15386           0.0000000000
     44131     14711  TIP3      OH2           -26.7649705720       52.9939375841        2.6906836648  W2        15387           0.0000000000
     44132     14711  TIP3      H1            -26.3901305720       52.2495475841        2.2199436648  W2        15387           0.0000000000
     44133     14711  TIP3      H2            -26.7606005720       52.7239975841        3.6090136648  W2        15387           0.0000000000
     44134     14712  TIP3      OH2           -27.0961605720       52.9196475841        5.4399036648  W2        15388           0.0000000000
     44135     14712  TIP3      H1            -28.0311805720       53.0198375841        5.6186036648  W2        15388           0.0000000000
     44136     14712  TIP3      H2            -26.8159705720       52.2102475841        6.0182236648  W2        15388           0.0000000000
     44137     14713  TIP3      OH2           -24.1075705720       41.9868775841       17.4864636648  W2        15389           0.0000000000
     44138     14713  TIP3      H1            -24.5148905720       42.4674375841       16.7657936648  W2        15389           0.0000000000
     44139     14713  TIP3      H2            -24.0670005720       41.0814775841       17.1785436648  W2        15389           0.0000000000
     44140     14714  TIP3      OH2           -36.9586205720       48.3708175841       15.4831336648  W2        15390           0.0000000000
     44141     14714  TIP3      H1            -36.7424905720       48.0093775841       16.3427136648  W2        15390           0.0000000000
     44142     14714  TIP3      H2            -37.8141505720       47.9961975841       15.2734836648  W2        15390           0.0000000000
     44143     14715  TIP3      OH2           -34.3398205720       36.8408675841       11.4785536648  W2        15391           0.0000000000
     44144     14715  TIP3      H1            -35.2014505720       36.7536875841       11.0708436648  W2        15391           0.0000000000
     44145     14715  TIP3      H2            -34.3622505720       37.6968775841       11.9063136648  W2        15391           0.0000000000
     44146     14716  TIP3      OH2           -29.6770405720       36.5629075841       14.8532536648  W2        15392           0.0000000000
     44147     14716  TIP3      H1            -29.2567305720       36.1476175841       15.6063136648  W2        15392           0.0000000000
     44148     14716  TIP3      H2            -30.6100805720       36.3842375841       14.9704536648  W2        15392           0.0000000000
     44149     14717  TIP3      OH2           -26.3505505720       40.3184275841       15.7067036648  W2        15393           0.0000000000
     44150     14717  TIP3      H1            -26.8646005720       40.1926475841       16.5043036648  W2        15393           0.0000000000
     44151     14717  TIP3      H2            -26.5060805720       41.2307375841       15.4623236648  W2        15393           0.0000000000
     44152     14718  TIP3      OH2           -25.5880605720       45.1794275841        1.4680036648  W2        15394           0.0000000000
     44153     14718  TIP3      H1            -25.5459805720       44.9568175841        0.5380036648  W2        15394           0.0000000000
     44154     14718  TIP3      H2            -24.7388505720       45.5781375841        1.6579936648  W2        15394           0.0000000000
     44155     14719  TIP3      OH2           -30.0153105720       39.0552475841        2.1383336648  W2        15395           0.0000000000
     44156     14719  TIP3      H1            -30.2688305720       39.0744075841        3.0611436648  W2        15395           0.0000000000
     44157     14719  TIP3      H2            -30.2721005720       38.1837875841        1.8369536648  W2        15395           0.0000000000
     44158     14720  TIP3      OH2           -34.2488105720       41.8063175841       12.5735736648  W2        15396           0.0000000000
     44159     14720  TIP3      H1            -34.8906005720       41.7660475841       13.2825836648  W2        15396           0.0000000000
     44160     14720  TIP3      H2            -34.2116105720       42.7327875841       12.3358736648  W2        15396           0.0000000000
     44161     14721  TIP3      OH2           -34.2519005720       42.0273275841        7.4855736648  W2        15397           0.0000000000
     44162     14721  TIP3      H1            -35.1446105720       41.6869375841        7.4269536648  W2        15397           0.0000000000
     44163     14721  TIP3      H2            -33.8012405720       41.6504175841        6.7298936648  W2        15397           0.0000000000
     44164     14722  TIP3      OH2           -28.7163505720       42.4433575841        6.3026536648  W2        15398           0.0000000000
     44165     14722  TIP3      H1            -29.1253205720       43.2582175841        6.0111336648  W2        15398           0.0000000000
     44166     14722  TIP3      H2            -27.9957305720       42.3033675841        5.6883636648  W2        15398           0.0000000000
     44167     14723  TIP3      OH2           -29.6141905720       42.6189975841       17.7907236648  W2        15399           0.0000000000
     44168     14723  TIP3      H1            -30.1768105720       41.9141575841       18.1115036648  W2        15399           0.0000000000
     44169     14723  TIP3      H2            -28.7878505720       42.4981875841       18.2584836648  W2        15399           0.0000000000
     44170     14724  TIP3      OH2           -27.7115805720       41.8893975841        9.1166236648  W2        15400           0.0000000000
     44171     14724  TIP3      H1            -27.9071305720       42.4950775841        8.4016836648  W2        15400           0.0000000000
     44172     14724  TIP3      H2            -27.5303205720       41.0559175841        8.6822536648  W2        15400           0.0000000000
     44173     14725  TIP3      OH2           -36.4987605720       42.1266675841       14.4407736648  W2        15401           0.0000000000
     44174     14725  TIP3      H1            -36.5368205720       42.5268275841       15.3094836648  W2        15401           0.0000000000
     44175     14725  TIP3      H2            -36.9896505720       41.3099075841       14.5310636648  W2        15401           0.0000000000
     44176     14726  TIP3      OH2           -33.1330205720       39.5008975841        1.2393736648  W2        15402           0.0000000000
     44177     14726  TIP3      H1            -33.5639505720       39.0559075841        1.9691136648  W2        15402           0.0000000000
     44178     14726  TIP3      H2            -33.8511505720       39.8725275841        0.7271236648  W2        15402           0.0000000000
     44179     14727  TIP3      OH2           -39.8906805720       39.2428475841        8.2912436648  W2        15403           0.0000000000
     44180     14727  TIP3      H1            -39.2599105720       39.2140575841        9.0106336648  W2        15403           0.0000000000
     44181     14727  TIP3      H2            -39.4412505720       38.8177175841        7.5608336648  W2        15403           0.0000000000
     44182     14728  TIP3      OH2           -38.6164705720       39.9890475841        3.7152836648  W2        15404           0.0000000000
     44183     14728  TIP3      H1            -38.1423005720       40.5800375841        3.1303736648  W2        15404           0.0000000000
     44184     14728  TIP3      H2            -39.3338305720       40.5193375841        4.0622936648  W2        15404           0.0000000000
     44185     14729  TIP3      OH2           -28.4476605720       43.5275275841       13.7878636648  W2        15405           0.0000000000
     44186     14729  TIP3      H1            -28.1241805720       42.8964975841       13.1449136648  W2        15405           0.0000000000
     44187     14729  TIP3      H2            -28.8877305720       42.9927475841       14.4486036648  W2        15405           0.0000000000
     44188     14730  TIP3      OH2           -31.6703705720       39.4550775841        8.5719836648  W2        15406           0.0000000000
     44189     14730  TIP3      H1            -32.5812605720       39.5117575841        8.8605836648  W2        15406           0.0000000000
     44190     14730  TIP3      H2            -31.1650805720       39.3946275841        9.3827036648  W2        15406           0.0000000000
     44191     14731  TIP3      OH2           -36.8420305720       41.0837075841        7.3987436648  W2        15407           0.0000000000
     44192     14731  TIP3      H1            -37.7312305720       41.1832575841        7.0587036648  W2        15407           0.0000000000
     44193     14731  TIP3      H2            -36.5455405720       40.2420075841        7.0525336648  W2        15407           0.0000000000
     44194     14732  TIP3      OH2           -33.1888505720       41.0839675841        5.0552036648  W2        15408           0.0000000000
     44195     14732  TIP3      H1            -32.2573005720       41.2129675841        5.2335136648  W2        15408           0.0000000000
     44196     14732  TIP3      H2            -33.4038205720       41.7533975841        4.4056736648  W2        15408           0.0000000000
     44197     14733  TIP3      OH2           -27.2651805720       38.6897075841       11.8361636648  W2        15409           0.0000000000
     44198     14733  TIP3      H1            -27.9420205720       38.8210175841       12.5001336648  W2        15409           0.0000000000
     44199     14733  TIP3      H2            -27.7506905720       38.5346575841       11.0259336648  W2        15409           0.0000000000
     44200     14734  TIP3      OH2           -34.5148305720       42.2781875841        2.6218136648  W2        15410           0.0000000000
     44201     14734  TIP3      H1            -35.0573205720       41.8985675841        1.9305736648  W2        15410           0.0000000000
     44202     14734  TIP3      H2            -33.6813405720       42.4726575841        2.1932236648  W2        15410           0.0000000000
     44203     14735  TIP3      OH2           -36.3796905720       46.8353775841       17.7209736648  W2        15412           0.0000000000
     44204     14735  TIP3      H1            -35.6474505720       47.0899675841       18.2824236648  W2        15412           0.0000000000
     44205     14735  TIP3      H2            -37.1598205720       47.0399175841       18.2365136648  W2        15412           0.0000000000
     44206     14736  TIP3      OH2           -30.3504005720       42.2423775841       10.4589436648  W2        15413           0.0000000000
     44207     14736  TIP3      H1            -29.7860605720       41.6960375841        9.9119036648  W2        15413           0.0000000000
     44208     14736  TIP3      H2            -30.4980605720       41.7205675841       11.2477036648  W2        15413           0.0000000000
     44209     14737  TIP3      OH2           -35.3484305720       38.3789875841        6.8774236648  W2        15414           0.0000000000
     44210     14737  TIP3      H1            -35.6654805720       37.4765175841        6.8419636648  W2        15414           0.0000000000
     44211     14737  TIP3      H2            -34.5670205720       38.3807275841        6.3245836648  W2        15414           0.0000000000
     44212     14738  TIP3      OH2           -31.7238105720       40.6309875841       12.8729836648  W2        15415           0.0000000000
     44213     14738  TIP3      H1            -32.5592805720       41.0849375841       12.9832236648  W2        15415           0.0000000000
     44214     14738  TIP3      H2            -31.1997505720       40.9068375841       13.6249736648  W2        15415           0.0000000000
     44215     14739  TIP3      OH2           -31.1795505720       46.8437575841        4.5576236648  W2        15416           0.0000000000
     44216     14739  TIP3      H1            -31.9244505720       46.3362875841        4.2354136648  W2        15416           0.0000000000
     44217     14739  TIP3      H2            -31.3138305720       46.8925575841        5.5041036648  W2        15416           0.0000000000
     44218     14740  TIP3      OH2           -24.0296605720       45.9765775841       13.3443836648  W2        15417           0.0000000000
     44219     14740  TIP3      H1            -23.3877805720       46.4332075841       12.8006036648  W2        15417           0.0000000000
     44220     14740  TIP3      H2            -24.8599705720       46.0898175841       12.8817936648  W2        15417           0.0000000000
     44221     14741  TIP3      OH2           -27.2818705720       39.6577475841        2.7568836648  W2        15418           0.0000000000
     44222     14741  TIP3      H1            -28.2204505720       39.7693075841        2.6057636648  W2        15418           0.0000000000
     44223     14741  TIP3      H2            -26.9846605720       40.5144375841        3.0634536648  W2        15418           0.0000000000
     44224     14742  TIP3      OH2           -29.6603405720       47.0280875841       15.7945336648  W2        15419           0.0000000000
     44225     14742  TIP3      H1            -30.0057305720       46.6463275841       16.6014936648  W2        15419           0.0000000000
     44226     14742  TIP3      H2            -29.8603305720       47.9614475841       15.8658236648  W2        15419           0.0000000000
     44227     14743  TIP3      OH2           -26.5635205720       41.5250175841        4.4176236648  W2        15420           0.0000000000
     44228     14743  TIP3      H1            -25.6716205720       41.3875175841        4.7367436648  W2        15420           0.0000000000
     44229     14743  TIP3      H2            -26.5071605720       42.3156275841        3.8809736648  W2        15420           0.0000000000
     44230     14744  TIP3      OH2           -36.0547205720       46.1387575841       10.3274136648  W2        15421           0.0000000000
     44231     14744  TIP3      H1            -35.3100005720       46.1363275841        9.7260636648  W2        15421           0.0000000000
     44232     14744  TIP3      H2            -35.9770605720       45.3151375841       10.8089236648  W2        15421           0.0000000000
     44233     14745  TIP3      OH2           -29.0541405720       48.3021875841        3.5830836648  W2        15422           0.0000000000
     44234     14745  TIP3      H1            -29.3493005720       49.1289775841        3.9645636648  W2        15422           0.0000000000
     44235     14745  TIP3      H2            -29.7571405720       47.6828775841        3.7792236648  W2        15422           0.0000000000
     44236     14746  TIP3      OH2           -39.0467505720       44.5994475841       15.6422636648  W2        15423           0.0000000000
     44237     14746  TIP3      H1            -38.8238905720       44.1814075841       16.4740136648  W2        15423           0.0000000000
     44238     14746  TIP3      H2            -39.6487405720       43.9869475841       15.2195436648  W2        15423           0.0000000000
     44239     14747  TIP3      OH2           -27.4099805720       49.4896375841       15.7450336648  W2        15425           0.0000000000
     44240     14747  TIP3      H1            -28.3105505720       49.6728975841       15.4774236648  W2        15425           0.0000000000
     44241     14747  TIP3      H2            -27.3758705720       49.7485675841       16.6659136648  W2        15425           0.0000000000
     44242     14748  TIP3      OH2           -21.6786505720       41.7344275841        4.1122936648  W2        15426           0.0000000000
     44243     14748  TIP3      H1            -22.2330205720       41.3382275841        3.4400436648  W2        15426           0.0000000000
     44244     14748  TIP3      H2            -21.5782905720       42.6449475841        3.8346236648  W2        15426           0.0000000000
     44245     14749  TIP3      OH2           -21.7154505720       47.5345975841       16.9494436648  W2        15427           0.0000000000
     44246     14749  TIP3      H1            -22.5666005720       47.7729775841       16.5820836648  W2        15427           0.0000000000
     44247     14749  TIP3      H2            -21.1251105720       47.5179175841       16.1961536648  W2        15427           0.0000000000
     44248     14750  TIP3      OH2           -23.3834805720       50.5204675841        4.5775036648  W2        15428           0.0000000000
     44249     14750  TIP3      H1            -23.7563705720       49.6948475841        4.8865636648  W2        15428           0.0000000000
     44250     14750  TIP3      H2            -23.1061305720       50.3374075841        3.6798436648  W2        15428           0.0000000000
     44251     14751  TIP3      OH2           -26.2230905720       45.3284175841       11.5986936648  W2        15429           0.0000000000
     44252     14751  TIP3      H1            -27.1514005720       45.0966075841       11.5716236648  W2        15429           0.0000000000
     44253     14751  TIP3      H2            -25.7719805720       44.5513975841       11.2685736648  W2        15429           0.0000000000
     44254     14752  TIP3      OH2           -33.6797805720       49.6565775841        7.7315636648  W2        15430           0.0000000000
     44255     14752  TIP3      H1            -33.1525605720       50.4300175841        7.5314436648  W2        15430           0.0000000000
     44256     14752  TIP3      H2            -34.5599305720       49.8814975841        7.4299636648  W2        15430           0.0000000000
     44257     14753  TIP3      OH2           -37.9250105720       44.5189875841        2.3188036648  W2        15431           0.0000000000
     44258     14753  TIP3      H1            -37.3090205720       45.1457075841        2.6982836648  W2        15431           0.0000000000
     44259     14753  TIP3      H2            -38.7867505720       44.8349675841        2.5904536648  W2        15431           0.0000000000
     44260     14754  TIP3      OH2           -32.2525505720       47.3195675841        7.3079936648  W2        15432           0.0000000000
     44261     14754  TIP3      H1            -32.4935505720       48.2450075841        7.3495236648  W2        15432           0.0000000000
     44262     14754  TIP3      H2            -32.9931905720       46.8606975841        7.7043836648  W2        15432           0.0000000000
     44263     14755  TIP3      OH2           -31.7378905720       51.4689275841       13.6231036648  W2        15433           0.0000000000
     44264     14755  TIP3      H1            -31.3754205720       52.3234875841       13.3895436648  W2        15433           0.0000000000
     44265     14755  TIP3      H2            -31.2063705720       51.1770875841       14.3637336648  W2        15433           0.0000000000
     44266     14756  TIP3      OH2           -33.5694705720       52.3413275841        6.8532136648  W2        15434           0.0000000000
     44267     14756  TIP3      H1            -34.5194205720       52.4470675841        6.9045436648  W2        15434           0.0000000000
     44268     14756  TIP3      H2            -33.2176605720       53.1620675841        7.1979636648  W2        15434           0.0000000000
     44269     14757  TIP3      OH2           -28.1938105720       47.5679975841       13.3236636648  W2        15435           0.0000000000
     44270     14757  TIP3      H1            -28.6196805720       47.3401675841       14.1500636648  W2        15435           0.0000000000
     44271     14757  TIP3      H2            -27.6132305720       46.8291775841       13.1411936648  W2        15435           0.0000000000
     44272     14758  TIP3      OH2           -25.9909205720       48.4970475841        2.3975636648  W2        15436           0.0000000000
     44273     14758  TIP3      H1            -25.6376105720       48.1170275841        3.2019136648  W2        15436           0.0000000000
     44274     14758  TIP3      H2            -26.9395705720       48.4035275841        2.4844936648  W2        15436           0.0000000000
     44275     14759  TIP3      OH2           -25.5353905720       52.1199475841       15.7931436648  W2        15437           0.0000000000
     44276     14759  TIP3      H1            -26.1370705720       51.5642375841       15.2977736648  W2        15437           0.0000000000
     44277     14759  TIP3      H2            -25.2540205720       52.7869275841       15.1668836648  W2        15437           0.0000000000
     44278     14760  TIP3      OH2           -21.4874805720       52.9762975841        2.5985836648  W2        15438           0.0000000000
     44279     14760  TIP3      H1            -20.7436905720       53.5623475841        2.4587436648  W2        15438           0.0000000000
     44280     14760  TIP3      H2            -22.1816705720       53.5448775841        2.9318236648  W2        15438           0.0000000000
     44281     14761  TIP3      OH2           -37.4128005720       39.3527175841       15.2004036648  W2        15439           0.0000000000
     44282     14761  TIP3      H1            -38.3055705720       39.6912575841       15.1328036648  W2        15439           0.0000000000
     44283     14761  TIP3      H2            -37.5115205720       38.4973275841       15.6184836648  W2        15439           0.0000000000
     44284     14762  TIP3      OH2           -25.1249905720       47.1692475841        4.6243536648  W2        15440           0.0000000000
     44285     14762  TIP3      H1            -25.4022305720       46.4411775841        5.1804636648  W2        15440           0.0000000000
     44286     14762  TIP3      H2            -24.1976905720       47.2884475841        4.8296136648  W2        15440           0.0000000000
     44287     14763  TIP3      OH2           -37.7616005720       51.1571575841       13.6353436648  W2        15441           0.0000000000
     44288     14763  TIP3      H1            -37.5445705720       50.2253975841       13.6043136648  W2        15441           0.0000000000
     44289     14763  TIP3      H2            -37.5152505720       51.4316575841       14.5186236648  W2        15441           0.0000000000
     44290     14764  TIP3      OH2           -31.9001405720       49.6086575841        0.8445636648  W2        15442           0.0000000000
     44291     14764  TIP3      H1            -31.6611605720       48.8604675841        0.2974536648  W2        15442           0.0000000000
     44292     14764  TIP3      H2            -32.1690105720       49.2208275841        1.6773436648  W2        15442           0.0000000000
     44293     14765  TIP3      OH2           -32.9630805720       49.1790375841        3.3008236648  W2        15443           0.0000000000
     44294     14765  TIP3      H1            -32.8162805720       48.6590175841        4.0909136648  W2        15443           0.0000000000
     44295     14765  TIP3      H2            -32.9659105720       50.0857975841        3.6074136648  W2        15443           0.0000000000
     44296     14766  TIP3      OH2           -36.5099705720       46.4313675841        3.8113636648  W2        15444           0.0000000000
     44297     14766  TIP3      H1            -37.1960405720       46.7836175841        4.3783336648  W2        15444           0.0000000000
     44298     14766  TIP3      H2            -35.9871805720       47.1943275841        3.5647936648  W2        15444           0.0000000000
     44299     14767  TIP3      OH2           -28.6784605720       39.0937475841       14.0902636648  W2        15445           0.0000000000
     44300     14767  TIP3      H1            -27.9796705720       39.1676175841       14.7402336648  W2        15445           0.0000000000
     44301     14767  TIP3      H2            -29.0593205720       38.2292475841       14.2445536648  W2        15445           0.0000000000
     44302     14768  TIP3      OH2           -27.8939705720       38.7459175841        5.1874936648  W2        15446           0.0000000000
     44303     14768  TIP3      H1            -27.6741405720       39.2174575841        4.3840336648  W2        15446           0.0000000000
     44304     14768  TIP3      H2            -27.3355705720       39.1401775841        5.8575536648  W2        15446           0.0000000000
     44305     14769  TIP3      OH2           -30.2253605720       50.8763975841        4.0502436648  W2        15447           0.0000000000
     44306     14769  TIP3      H1            -31.0417505720       51.3733675841        4.1026736648  W2        15447           0.0000000000
     44307     14769  TIP3      H2            -29.6957305720       51.3517475841        3.4101236648  W2        15447           0.0000000000
     44308     14770  TIP3      OH2           -30.6939805720       40.4737975841        6.0223336648  W2        15448           0.0000000000
     44309     14770  TIP3      H1            -29.8817205720       40.9781175841        6.0685036648  W2        15448           0.0000000000
     44310     14770  TIP3      H2            -30.9386805720       40.3287675841        6.9362936648  W2        15448           0.0000000000
     44311     14771  TIP3      OH2           -30.1583405720       41.4600675841       15.2069936648  W2        15449           0.0000000000
     44312     14771  TIP3      H1            -30.0393105720       42.0336075841       15.9640336648  W2        15449           0.0000000000
     44313     14771  TIP3      H2            -29.5028805720       40.7720075841       15.3217736648  W2        15449           0.0000000000
     44314     14772  TIP3      OH2           -29.8103105720       37.5550975841        6.9604436648  W2        15450           0.0000000000
     44315     14772  TIP3      H1            -30.1569605720       38.1721575841        7.6048736648  W2        15450           0.0000000000
     44316     14772  TIP3      H2            -29.1516205720       38.0556675841        6.4789936648  W2        15450           0.0000000000
     44317     14773  TIP3      OH2           -32.8870505720       51.9201175841        4.0319336648  W2        15451           0.0000000000
     44318     14773  TIP3      H1            -32.7261805720       52.7198675841        3.5311936648  W2        15451           0.0000000000
     44319     14773  TIP3      H2            -33.0842705720       52.2267175841        4.9169936648  W2        15451           0.0000000000
     44320     14774  TIP3      OH2           -34.1526105720       38.6180375841        3.6476936648  W2        15452           0.0000000000
     44321     14774  TIP3      H1            -34.2361305720       39.5063475841        3.9943336648  W2        15452           0.0000000000
     44322     14774  TIP3      H2            -33.2625805720       38.3527075841        3.8793736648  W2        15452           0.0000000000
     44323     14775  TIP3      OH2           -23.9537605720       39.3670975841       16.0419636648  W2        15453           0.0000000000
     44324     14775  TIP3      H1            -24.8701805720       39.6292675841       15.9543336648  W2        15453           0.0000000000
     44325     14775  TIP3      H2            -23.6182605720       39.3639975841       15.1454936648  W2        15453           0.0000000000
     44326     14776  TIP3      OH2           -25.3516605720       43.1171975841       10.1376936648  W2        15454           0.0000000000
     44327     14776  TIP3      H1            -26.1492205720       42.7022175841        9.8091936648  W2        15454           0.0000000000
     44328     14776  TIP3      H2            -24.9065505720       42.4265675841       10.6287436648  W2        15454           0.0000000000
     44329     14777  TIP3      OH2           -35.8940805720       49.0452575841        2.7081436648  W2        15455           0.0000000000
     44330     14777  TIP3      H1            -35.3019305720       49.7447375841        2.9843836648  W2        15455           0.0000000000
     44331     14777  TIP3      H2            -35.4347805720       48.6122075841        1.9886036648  W2        15455           0.0000000000
     44332     14778  TIP3      OH2           -37.5781605720       41.7095575841        1.8240836648  W2        15456           0.0000000000
     44333     14778  TIP3      H1            -37.6229005720       42.6488675841        2.0027836648  W2        15456           0.0000000000
     44334     14778  TIP3      H2            -38.4658405720       41.4740475841        1.5542936648  W2        15456           0.0000000000
     44335     14779  TIP3      OH2           -24.2652005720       52.3734475841       11.7600436648  W2        15457           0.0000000000
     44336     14779  TIP3      H1            -24.4207705720       53.0518875841       11.1029736648  W2        15457           0.0000000000
     44337     14779  TIP3      H2            -23.3325605720       52.4453775841       11.9631036648  W2        15457           0.0000000000
     44338     14780  TIP3      OH2           -36.7699605720       36.4912175841       10.4971836648  W2        15458           0.0000000000
     44339     14780  TIP3      H1            -36.9989805720       36.5504675841        9.5696836648  W2        15458           0.0000000000
     44340     14780  TIP3      H2            -37.2126205720       35.6997675841       10.8035936648  W2        15458           0.0000000000
     44341     14781  TIP3      OH2           -37.8396305720       50.4319275841        6.6577636648  W2        15459           0.0000000000
     44342     14781  TIP3      H1            -38.6717705720       50.9041975841        6.6849036648  W2        15459           0.0000000000
     44343     14781  TIP3      H2            -37.2938005720       50.9416875841        6.0590736648  W2        15459           0.0000000000
     44344     14782  TIP3      OH2           -29.8619605720       51.4717975841        0.9831636648  W2        15462           0.0000000000
     44345     14782  TIP3      H1            -30.5058605720       50.8406575841        1.3045336648  W2        15462           0.0000000000
     44346     14782  TIP3      H2            -29.1001305720       50.9405975841        0.7515136648  W2        15462           0.0000000000
     44347     14783  TIP3      OH2           -25.2576705720       51.2887875841        1.2169636648  W2        15464           0.0000000000
     44348     14783  TIP3      H1            -24.9746305720       50.4943075841        1.6696536648  W2        15464           0.0000000000
     44349     14783  TIP3      H2            -24.5178805720       51.5218875841        0.6560736648  W2        15464           0.0000000000
     44350     14784  TIP3      OH2           -34.3029405720       47.1982775841        1.0744536648  W2        15466           0.0000000000
     44351     14784  TIP3      H1            -34.2385305720       46.4042375841        1.6050936648  W2        15466           0.0000000000
     44352     14784  TIP3      H2            -33.6500205720       47.0795575841        0.3846536648  W2        15466           0.0000000000
     44353     14785  TIP3      OH2           -28.9506005720       48.2454475841        0.8102536648  W2        15468           0.0000000000
     44354     14785  TIP3      H1            -29.2191905720       48.4256575841        1.7111436648  W2        15468           0.0000000000
     44355     14785  TIP3      H2            -29.1570405720       47.3200675841        0.6788336648  W2        15468           0.0000000000
     44356     14786  TIP3      OH2           -26.2541805720       46.7402475841       15.7578636648  W2        15469           0.0000000000
     44357     14786  TIP3      H1            -25.5087005720       47.3286175841       15.6382636648  W2        15469           0.0000000000
     44358     14786  TIP3      H2            -27.0115005720       47.3222175841       15.8211736648  W2        15469           0.0000000000
     44359     14787  TIP3      OH2           -33.1535605720       45.1708975841        3.3802536648  W2        15471           0.0000000000
     44360     14787  TIP3      H1            -33.6133605720       44.6867275841        4.0661036648  W2        15471           0.0000000000
     44361     14787  TIP3      H2            -32.8986905720       44.5024375841        2.7443036648  W2        15471           0.0000000000
     44362     14788  TIP3      OH2           -33.8646305720       43.0636075841       15.7362136648  W2        15472           0.0000000000
     44363     14788  TIP3      H1            -34.4830205720       43.7382675841       16.0166836648  W2        15472           0.0000000000
     44364     14788  TIP3      H2            -33.5205105720       43.3849975841       14.9028336648  W2        15472           0.0000000000
     44365     14789  TIP3      OH2           -32.0825205720       43.4140775841        1.6425736648  W2        15473           0.0000000000
     44366     14789  TIP3      H1            -32.2630205720       43.2591975841        0.7154036648  W2        15473           0.0000000000
     44367     14789  TIP3      H2            -31.1324705720       43.5219475841        1.6873636648  W2        15473           0.0000000000
     44368     14790  TIP3      OH2           -22.6926905720       45.7684975841        1.0883836648  W2        15475           0.0000000000
     44369     14790  TIP3      H1            -22.9662105720       45.3440475841        0.2752136648  W2        15475           0.0000000000
     44370     14790  TIP3      H2            -22.6532805720       46.6999475841        0.8714236648  W2        15475           0.0000000000
     44371     14791  TIP3      OH2           -33.5252605720       40.4186875841       16.8185236648  W2        15476           0.0000000000
     44372     14791  TIP3      H1            -33.3751705720       39.6898175841       16.2164936648  W2        15476           0.0000000000
     44373     14791  TIP3      H2            -33.5230205720       41.1958575841       16.2597436648  W2        15476           0.0000000000
     44374     14792  TIP3      OH2           -33.1126905720       38.7882675841       14.3112636648  W2        15477           0.0000000000
     44375     14792  TIP3      H1            -32.5769405720       39.2399375841       13.6591936648  W2        15477           0.0000000000
     44376     14792  TIP3      H2            -33.9647305720       38.6802475841       13.8886736648  W2        15477           0.0000000000
     44377     14793  TIP3      OH2           -31.5308505720       44.2278875841       14.5507836648  W2        15478           0.0000000000
     44378     14793  TIP3      H1            -30.7803705720       44.0716375841       13.9775636648  W2        15478           0.0000000000
     44379     14793  TIP3      H2            -31.8700205720       45.0795475841       14.2753336648  W2        15478           0.0000000000
     44380     14794  TIP3      OH2           -25.7985105720       44.8315875841       17.6565836648  W2        15480           0.0000000000
     44381     14794  TIP3      H1            -26.0800105720       45.5410475841       17.0789636648  W2        15480           0.0000000000
     44382     14794  TIP3      H2            -24.8560805720       44.7588875841       17.5057036648  W2        15480           0.0000000000
     44383     14795  TIP3      OH2           -32.3071405720       36.2448375841       14.7426236648  W2        15482           0.0000000000
     44384     14795  TIP3      H1            -32.4051805720       37.1911575841       14.6372436648  W2        15482           0.0000000000
     44385     14795  TIP3      H2            -33.0495205720       35.8722175841       14.2669736648  W2        15482           0.0000000000
     44386     14796  TIP3      OH2           -28.3274305720       39.6937275841       17.3818136648  W2        15484           0.0000000000
     44387     14796  TIP3      H1            -29.2748905720       39.7256975841       17.5141436648  W2        15484           0.0000000000
     44388     14796  TIP3      H2            -28.0147605720       39.0684375841       18.0356336648  W2        15484           0.0000000000
     44389     14797  TIP3      OH2           -32.0853305720       35.5385775841       17.4139036648  W2        15487           0.0000000000
     44390     14797  TIP3      H1            -31.3734905720       34.8987975841       17.3998136648  W2        15487           0.0000000000
     44391     14797  TIP3      H2            -32.1862905720       35.8054075841       16.5002136648  W2        15487           0.0000000000
     44392     14798  TIP3      OH2           -32.1853505720       54.1044475841        2.6439336648  W2        15489           0.0000000000
     44393     14798  TIP3      H1            -31.2522805720       54.2623175841        2.7877736648  W2        15489           0.0000000000
     44394     14798  TIP3      H2            -32.4494705720       54.7797475841        2.0190836648  W2        15489           0.0000000000
     44395     14799  TIP3      OH2           -38.6168605720       48.7408275841        2.1267436648  W2        15490           0.0000000000
     44396     14799  TIP3      H1            -37.7029405720       48.8197175841        2.4001336648  W2        15490           0.0000000000
     44397     14799  TIP3      H2            -38.6095505720       48.0537875841        1.4603036648  W2        15490           0.0000000000
     44398     14800  TIP3      OH2           -39.9678005720       54.1336775841        7.2041336648  W2        15491           0.0000000000
     44399     14800  TIP3      H1            -40.6150905720       53.6718475841        6.6712536648  W2        15491           0.0000000000
     44400     14800  TIP3      H2            -39.6133405720       53.4620075841        7.7867536648  W2        15491           0.0000000000
     44401     14801  TIP3      OH2           -39.0978805720       52.2143775841        9.0087536648  W2        15492           0.0000000000
     44402     14801  TIP3      H1            -39.4322005720       51.3341075841        9.1807736648  W2        15492           0.0000000000
     44403     14801  TIP3      H2            -38.8756405720       52.5598775841        9.8733136648  W2        15492           0.0000000000
     44404     14802  TIP3      OH2           -21.5494005720       53.0240175841       11.9892336648  W2        15493           0.0000000000
     44405     14802  TIP3      H1            -21.5707305720       53.2088575841       12.9281736648  W2        15493           0.0000000000
     44406     14802  TIP3      H2            -20.8587805720       53.5924175841       11.6483736648  W2        15493           0.0000000000
     44407     14803  TIP3      OH2           -21.9861105720       52.5911275841       14.9111436648  W2        15494           0.0000000000
     44408     14803  TIP3      H1            -22.4732405720       51.8555375841       14.5398836648  W2        15494           0.0000000000
     44409     14803  TIP3      H2            -21.4368405720       52.1975175841       15.5890836648  W2        15494           0.0000000000
     44410     14804  TIP3      OH2           -22.2344105720       46.6373075841        5.0634236648  W2        15496           0.0000000000
     44411     14804  TIP3      H1            -21.3842705720       47.0583975841        5.1905836648  W2        15496           0.0000000000
     44412     14804  TIP3      H2            -22.2289005720       45.8973175841        5.6705636648  W2        15496           0.0000000000
     44413     14805  TIP3      OH2           -21.8398505720       44.6910475841        6.8869936648  W2        15497           0.0000000000
     44414     14805  TIP3      H1            -22.5663905720       44.2113075841        7.2847536648  W2        15497           0.0000000000
     44415     14805  TIP3      H2            -21.2585205720       44.8965175841        7.6191536648  W2        15497           0.0000000000
     44416     14806  TIP3      OH2           -22.0807305720       47.4757975841       11.8347536648  W2        15498           0.0000000000
     44417     14806  TIP3      H1            -21.2473105720       47.0977975841       11.5541136648  W2        15498           0.0000000000
     44418     14806  TIP3      H2            -21.9687005720       48.4189175841       11.7156636648  W2        15498           0.0000000000
     44419     14807  TIP3      OH2           -23.5945005720       50.3535475841       14.1415936648  W2        15499           0.0000000000
     44420     14807  TIP3      H1            -24.2419705720       50.6786975841       14.7671136648  W2        15499           0.0000000000
     44421     14807  TIP3      H2            -24.1121005720       49.9133175841       13.4674236648  W2        15499           0.0000000000
     44422     14808  TIP3      OH2           -21.5715405720       44.5918975841        3.2781236648  W2        15500           0.0000000000
     44423     14808  TIP3      H1            -22.0934305720       44.9483075841        2.5592136648  W2        15500           0.0000000000
     44424     14808  TIP3      H2            -21.6046205720       45.2666775841        3.9562136648  W2        15500           0.0000000000
     44425     14809  TIP3      OH2           -23.2226405720       41.8314575841        1.8288336648  W2        15501           0.0000000000
     44426     14809  TIP3      H1            -23.1262005720       42.4981575841        1.1488036648  W2        15501           0.0000000000
     44427     14809  TIP3      H2            -23.3626805720       41.0160875841        1.3473836648  W2        15501           0.0000000000
     44428     14810  TIP3      OH2           -24.0531705720       43.2116975841        7.4498636648  W2        15502           0.0000000000
     44429     14810  TIP3      H1            -24.2032905720       42.2665575841        7.4296436648  W2        15502           0.0000000000
     44430     14810  TIP3      H2            -24.4067205720       43.4928375841        8.2937736648  W2        15502           0.0000000000
     44431     14811  TIP3      OH2           -39.0179305720       45.2899175841       11.4602436648  W2        15503           0.0000000000
     44432     14811  TIP3      H1            -38.8336405720       45.2080875841       10.5245336648  W2        15503           0.0000000000
     44433     14811  TIP3      H2            -38.1686405720       45.1656175841       11.8838836648  W2        15503           0.0000000000
     44434     14812  TIP3      OH2           -23.1968805720       45.1820275841       17.0886936648  W2        15504           0.0000000000
     44435     14812  TIP3      H1            -22.6141505720       44.4472575841       17.2804136648  W2        15504           0.0000000000
     44436     14812  TIP3      H2            -22.6329505720       45.9540575841       17.1352736648  W2        15504           0.0000000000
     44437     14813  TIP3      OH2           -21.7001705720       43.0846075841       17.7732336648  W2        15505           0.0000000000
     44438     14813  TIP3      H1            -22.5635005720       42.7058175841       17.6077036648  W2        15505           0.0000000000
     44439     14813  TIP3      H2            -21.0958005720       42.3460875841       17.6988136648  W2        15505           0.0000000000
     44440     14814  TIP3      OH2           -23.9752605720       39.2394375841        0.9463836648  W2        15506           0.0000000000
     44441     14814  TIP3      H1            -23.3646805720       38.8681175841        1.5832036648  W2        15506           0.0000000000
     44442     14814  TIP3      H2            -24.8121105720       38.8181275841        1.1423836648  W2        15506           0.0000000000
     44443     14815  TIP3      OH2           -24.3426905720       40.7942775841        5.9123736648  W2        15507           0.0000000000
     44444     14815  TIP3      H1            -24.0629805720       39.8873175841        6.0365436648  W2        15507           0.0000000000
     44445     14815  TIP3      H2            -23.5835205720       41.2284275841        5.5232936648  W2        15507           0.0000000000
     44446     14816  TIP3      OH2           -23.7308605720       41.3760175841       11.3482636648  W2        15508           0.0000000000
     44447     14816  TIP3      H1            -22.7980605720       41.5880075841       11.3138636648  W2        15508           0.0000000000
     44448     14816  TIP3      H2            -23.9661105720       41.4772275841       12.2705636648  W2        15508           0.0000000000
     44449     14817  TIP3      OH2           -23.7016705720       42.1125475841       14.1242036648  W2        15509           0.0000000000
     44450     14817  TIP3      H1            -24.5445405720       42.3805875841       14.4901836648  W2        15509           0.0000000000
     44451     14817  TIP3      H2            -23.2592405720       42.9347375841       13.9133136648  W2        15509           0.0000000000
     44452     14818  TIP3      OH2           -39.4204505720       40.5604175841       17.6011236648  W2        15510           0.0000000000
     44453     14818  TIP3      H1            -38.5009605720       40.4382475841       17.8374336648  W2        15510           0.0000000000
     44454     14818  TIP3      H2            -39.8700005720       39.8103875841       17.9904736648  W2        15510           0.0000000000
     44455     14819  TIP3      OH2           -23.7292105720       38.0572075841        5.9605736648  W2        15512           0.0000000000
     44456     14819  TIP3      H1            -23.5467105720       37.6083575841        6.7860736648  W2        15512           0.0000000000
     44457     14819  TIP3      H2            -24.3289205720       37.4726475841        5.4970336648  W2        15512           0.0000000000
     44458     14820  TIP3      OH2           -38.1992005720       38.8725775841       10.4924136648  W2        15513           0.0000000000
     44459     14820  TIP3      H1            -37.7540405720       38.0808275841       10.7943836648  W2        15513           0.0000000000
     44460     14820  TIP3      H2            -37.7329005720       39.5890975841       10.9229736648  W2        15513           0.0000000000
     44461     14821  TIP3      OH2           -39.8951705720       41.8718775841       11.5614336648  W2        15514           0.0000000000
     44462     14821  TIP3      H1            -39.4031905720       41.6509275841       10.7706336648  W2        15514           0.0000000000
     44463     14821  TIP3      H2            -39.5330805720       42.7122175841       11.8423836648  W2        15514           0.0000000000
     44464     14822  TIP3      OH2           -21.8625905720       38.1250175841        2.4886036648  W2        15516           0.0000000000
     44465     14822  TIP3      H1            -21.4503305720       37.4035875841        2.0134036648  W2        15516           0.0000000000
     44466     14822  TIP3      H2            -21.1809405720       38.7944775841        2.5470336648  W2        15516           0.0000000000
     44467     14823  TIP3      OH2           -39.5815205720       38.1297875841        5.6156736648  W2        15517           0.0000000000
     44468     14823  TIP3      H1            -40.5066805720       38.3384475841        5.4862236648  W2        15517           0.0000000000
     44469     14823  TIP3      H2            -39.1275305720       38.6138675841        4.9259036648  W2        15517           0.0000000000
     44470     14824  TIP3      OH2           -24.8108005720       53.1139575841        7.5614136648  W2        15518           0.0000000000
     44471     14824  TIP3      H1            -24.1585105720       52.7661675841        6.9533236648  W2        15518           0.0000000000
     44472     14824  TIP3      H2            -24.3004205720       53.6022775841        8.2073836648  W2        15518           0.0000000000
     44473     14825  TIP3      OH2           -39.6179805720       36.8676875841       13.9599236648  W2        15519           0.0000000000
     44474     14825  TIP3      H1            -40.2829305720       36.6217175841       14.6030136648  W2        15519           0.0000000000
     44475     14825  TIP3      H2            -40.0608505720       37.4897275841       13.3827236648  W2        15519           0.0000000000
     44476     14826  TIP3      OH2           -34.4717605720       51.0172175841       14.3629036648  W2        15521           0.0000000000
     44477     14826  TIP3      H1            -34.8966505720       51.8270675841       14.0803636648  W2        15521           0.0000000000
     44478     14826  TIP3      H2            -33.5674805720       51.1026275841       14.0608836648  W2        15521           0.0000000000
     44479     14827  TIP3      OH2           -30.1606205720       52.4162175841       17.3222736648  W2        15522           0.0000000000
     44480     14827  TIP3      H1            -29.9758705720       52.0828275841       18.2003036648  W2        15522           0.0000000000
     44481     14827  TIP3      H2            -29.3141705720       52.7260775841       17.0001936648  W2        15522           0.0000000000
     44482     14828  TIP3      OH2           -27.8155805720       53.7021075841       16.5664136648  W2        15523           0.0000000000
     44483     14828  TIP3      H1            -27.1386905720       53.0693375841       16.3263336648  W2        15523           0.0000000000
     44484     14828  TIP3      H2            -27.4937005720       54.1031575841       17.3737436648  W2        15523           0.0000000000
     44485     14829  TIP3      OH2           -22.8982005720       36.2916575841       15.6459136648  W2        15524           0.0000000000
     44486     14829  TIP3      H1            -23.7108505720       36.6166875841       15.2583836648  W2        15524           0.0000000000
     44487     14829  TIP3      H2            -22.6653505720       35.5315075841       15.1128236648  W2        15524           0.0000000000
     44488     14830  TIP3      OH2           -37.0700905720       54.2736075841       14.4104336648  W2        15525           0.0000000000
     44489     14830  TIP3      H1            -37.7904505720       54.7137075841       13.9592036648  W2        15525           0.0000000000
     44490     14830  TIP3      H2            -37.4356905720       54.0230775841       15.2588336648  W2        15525           0.0000000000
     44491     14831  TIP3      OH2           -34.6028305720       53.8739975841       13.4401536648  W2        15526           0.0000000000
     44492     14831  TIP3      H1            -35.4676105720       53.9458475841       13.8441636648  W2        15526           0.0000000000
     44493     14831  TIP3      H2            -34.6579305720       54.4207275841       12.6564036648  W2        15526           0.0000000000
     44494     14832  TIP3      OH2           -29.8922705720       53.7618875841       12.6157536648  W2        15527           0.0000000000
     44495     14832  TIP3      H1            -30.3488705720       54.2908575841       11.9615936648  W2        15527           0.0000000000
     44496     14832  TIP3      H2            -29.7294705720       54.3650275841       13.3409836648  W2        15527           0.0000000000
     44497     14833  TIP3      OH2           -27.5646405720       52.6398475841       13.5607836648  W2        15528           0.0000000000
     44498     14833  TIP3      H1            -28.4692705720       52.8048675841       13.2949936648  W2        15528           0.0000000000
     44499     14833  TIP3      H2            -27.1357805720       53.4930675841       13.4951236648  W2        15528           0.0000000000
     44500     14834  TIP3      OH2           -24.9604505720       54.2097575841       13.8555636648  W2        15529           0.0000000000
     44501     14834  TIP3      H1            -25.1422505720       55.1256475841       13.6450536648  W2        15529           0.0000000000
     44502     14834  TIP3      H2            -24.7836705720       53.7994675841       13.0090236648  W2        15529           0.0000000000
     44503     14835  TIP3      OH2           -37.6552805720       52.8968575841       11.3206136648  W2        15530           0.0000000000
     44504     14835  TIP3      H1            -37.6736805720       52.4713675841       12.1778436648  W2        15530           0.0000000000
     44505     14835  TIP3      H2            -36.8504905720       52.5783575841       10.9118336648  W2        15530           0.0000000000
     44506     14836  TIP3      OH2           -35.5139705720       51.6067275841        9.9756036648  W2        15531           0.0000000000
     44507     14836  TIP3      H1            -35.7329005720       50.6904675841       10.1452036648  W2        15531           0.0000000000
     44508     14836  TIP3      H2            -34.6897505720       51.7467675841       10.4417436648  W2        15531           0.0000000000
     44509     14837  TIP3      OH2           -32.9767205720       52.0766575841       10.8244036648  W2        15532           0.0000000000
     44510     14837  TIP3      H1            -32.7641505720       51.1885575841       10.5374936648  W2        15532           0.0000000000
     44511     14837  TIP3      H2            -32.9122105720       52.0424275841       11.7788036648  W2        15532           0.0000000000
     44512     14838  TIP3      OH2           -29.4683505720       37.7407175841        9.9687336648  W2        15533           0.0000000000
     44513     14838  TIP3      H1            -30.1426705720       37.1112775841       10.2243136648  W2        15533           0.0000000000
     44514     14838  TIP3      H2            -28.9044305720       37.2566075841        9.3655236648  W2        15533           0.0000000000
     44515     14839  TIP3      OH2           -24.3256305720       35.8481175841       10.0814436648  W2        15534           0.0000000000
     44516     14839  TIP3      H1            -23.7218705720       36.3956575841        9.5795436648  W2        15534           0.0000000000
     44517     14839  TIP3      H2            -25.1954305720       36.1671575841        9.8408536648  W2        15534           0.0000000000
     44518     14840  TIP3      OH2           -22.5985905720       36.9869875841        8.4145336648  W2        15535           0.0000000000
     44519     14840  TIP3      H1            -21.9868405720       36.4725575841        7.8878936648  W2        15535           0.0000000000
     44520     14840  TIP3      H2            -22.2162505720       37.8641975841        8.4379736648  W2        15535           0.0000000000
     44521     14841  TIP3      OH2           -37.1416005720       36.3747475841        7.7907236648  W2        15536           0.0000000000
     44522     14841  TIP3      H1            -37.9186205720       36.1402375841        7.2833136648  W2        15536           0.0000000000
     44523     14841  TIP3      H2            -36.6112405720       35.5779575841        7.7995236648  W2        15536           0.0000000000
     44524     14842  TIP3      OH2           -38.3052605720       36.1725575841        3.5943336648  W2        15537           0.0000000000
     44525     14842  TIP3      H1            -37.8661905720       36.7836075841        3.0026836648  W2        15537           0.0000000000
     44526     14842  TIP3      H2            -38.9390205720       36.7109675841        4.0683336648  W2        15537           0.0000000000
     44527     14843  TIP3      OH2           -32.5623405720       36.3014575841        7.6040336648  W2        15538           0.0000000000
     44528     14843  TIP3      H1            -31.6880005720       36.6898875841        7.5744636648  W2        15538           0.0000000000
     44529     14843  TIP3      H2            -32.6982605720       36.0862375841        8.5267536648  W2        15538           0.0000000000
     44530     14844  TIP3      OH2           -27.0055005720       36.3314375841        9.2532036648  W2        15539           0.0000000000
     44531     14844  TIP3      H1            -26.9293405720       36.4265975841        8.3038036648  W2        15539           0.0000000000
     44532     14844  TIP3      H2            -27.2805805720       35.4237275841        9.3821136648  W2        15539           0.0000000000
     44533     14845  TIP3      OH2           -25.6522405720       36.3572175841        4.9457036648  W2        15540           0.0000000000
     44534     14845  TIP3      H1            -26.3551305720       36.9721375841        4.7358436648  W2        15540           0.0000000000
     44535     14845  TIP3      H2            -26.0971005720       35.5198875841        5.0767936648  W2        15540           0.0000000000
     44536     14846  TIP3      OH2           -38.4043105720       52.1207775841        4.4918436648  W2        15541           0.0000000000
     44537     14846  TIP3      H1            -39.0893205720       52.0826675841        3.8243536648  W2        15541           0.0000000000
     44538     14846  TIP3      H2            -38.4005905720       53.0335375841        4.7800536648  W2        15541           0.0000000000
     44539     14847  TIP3      OH2           -36.4443505720       38.0887075841        2.0367436648  W2        15542           0.0000000000
     44540     14847  TIP3      H1            -35.9530105720       37.4589475841        1.5092936648  W2        15542           0.0000000000
     44541     14847  TIP3      H2            -35.8207205720       38.3846475841        2.6998636648  W2        15542           0.0000000000
     44542     14848  TIP3      OH2           -31.4183405720       38.3818575841        4.4937936648  W2        15543           0.0000000000
     44543     14848  TIP3      H1            -31.2402105720       37.7351775841        5.1766536648  W2        15543           0.0000000000
     44544     14848  TIP3      H2            -31.4717205720       39.2156275841        4.9609036648  W2        15543           0.0000000000
     44545     14849  TIP3      OH2           -29.5399605720       53.3302675841        2.8894636648  W2        15544           0.0000000000
     44546     14849  TIP3      H1            -28.6739405720       53.6970075841        2.7112836648  W2        15544           0.0000000000
     44547     14849  TIP3      H2            -29.7866805720       52.8910675841        2.0755436648  W2        15544           0.0000000000
     44548     14850  TIP3      OH2           -22.8310005720       52.8932975841        5.5685736648  W2        15545           0.0000000000
     44549     14850  TIP3      H1            -23.0252905720       52.1455075841        5.0035336648  W2        15545           0.0000000000
     44550     14850  TIP3      H2            -22.8699905720       53.6513075841        4.9853636648  W2        15545           0.0000000000
     44551     14851  TIP3      OH2           -37.1838005720       36.8889375841       17.3083436648  W2        15546           0.0000000000
     44552     14851  TIP3      H1            -37.5499805720       36.1231975841       17.7508136648  W2        15546           0.0000000000
     44553     14851  TIP3      H2            -36.2709505720       36.9179575841       17.5948536648  W2        15546           0.0000000000
     44554     14852  TIP3      OH2           -36.5861905720       53.0408575841        1.5170536648  W2        15548           0.0000000000
     44555     14852  TIP3      H1            -36.8537305720       53.3271475841        2.3903636648  W2        15548           0.0000000000
     44556     14852  TIP3      H2            -35.8149305720       52.4947775841        1.6693036648  W2        15548           0.0000000000
     44557     14853  TIP3      OH2           -23.6133805720       51.6445375841       17.7187536648  W2        15550           0.0000000000
     44558     14853  TIP3      H1            -24.3951905720       51.4583375841       17.1988136648  W2        15550           0.0000000000
     44559     14853  TIP3      H2            -23.6853905720       52.5739675841       17.9360036648  W2        15550           0.0000000000
     44560     14854  TIP3      OH2            -9.2073405720       45.5309775841        7.7494736648  W2        15551           0.0000000000
     44561     14854  TIP3      H1             -9.1182305720       46.4747975841        7.6171836648  W2        15551           0.0000000000
     44562     14854  TIP3      H2             -9.8455805720       45.2556175841        7.0914136648  W2        15551           0.0000000000
     44563     14855  TIP3      OH2           -10.2742105720       44.7860475841       11.1682936648  W2        15552           0.0000000000
     44564     14855  TIP3      H1            -10.3124605720       44.1396775841       11.8732536648  W2        15552           0.0000000000
     44565     14855  TIP3      H2            -10.5965605720       44.3194875841       10.3971636648  W2        15552           0.0000000000
     44566     14856  TIP3      OH2           -17.9057105720       44.4002575841       12.7612836648  W2        15553           0.0000000000
     44567     14856  TIP3      H1            -17.8645005720       43.7745875841       13.4845236648  W2        15553           0.0000000000
     44568     14856  TIP3      H2            -17.2029405720       45.0241175841       12.9433236648  W2        15553           0.0000000000
     44569     14857  TIP3      OH2            -6.5681905720       47.7250875841        9.4698036648  W2        15554           0.0000000000
     44570     14857  TIP3      H1             -7.0089205720       47.0046875841        9.9203636648  W2        15554           0.0000000000
     44571     14857  TIP3      H2             -6.5812205720       48.4458075841       10.0995736648  W2        15554           0.0000000000
     44572     14858  TIP3      OH2           -16.9824005720       48.8501475841       11.2961936648  W2        15555           0.0000000000
     44573     14858  TIP3      H1            -17.3518805720       48.0481975841       10.9266236648  W2        15555           0.0000000000
     44574     14858  TIP3      H2            -16.0412905720       48.6816375841       11.3425336648  W2        15555           0.0000000000
     44575     14859  TIP3      OH2           -20.3723505720       42.5104075841        6.6890736648  W2        15556           0.0000000000
     44576     14859  TIP3      H1            -20.8200105720       43.3562775841        6.6707236648  W2        15556           0.0000000000
     44577     14859  TIP3      H2            -20.9332305720       41.9308275841        6.1735836648  W2        15556           0.0000000000
     44578     14860  TIP3      OH2           -19.6617405720       44.6723675841        8.8148736648  W2        15557           0.0000000000
     44579     14860  TIP3      H1            -19.4483905720       43.9025275841        9.3421736648  W2        15557           0.0000000000
     44580     14860  TIP3      H2            -18.9239805720       44.7620375841        8.2116336648  W2        15557           0.0000000000
     44581     14861  TIP3      OH2            -9.4566405720       52.8292575841        9.6818436648  W2        15558           0.0000000000
     44582     14861  TIP3      H1             -8.8370005720       52.1527275841        9.4087636648  W2        15558           0.0000000000
     44583     14861  TIP3      H2             -9.6649005720       52.6113375841       10.5903336648  W2        15558           0.0000000000
     44584     14862  TIP3      OH2           -11.8847705720       47.2181875841       11.5743936648  W2        15559           0.0000000000
     44585     14862  TIP3      H1            -11.5809805720       46.5323275841       10.9798036648  W2        15559           0.0000000000
     44586     14862  TIP3      H2            -11.1633705720       47.3370575841       12.1921936648  W2        15559           0.0000000000
     44587     14863  TIP3      OH2            -3.2217905720       38.8197175841       12.4350136648  W2        15560           0.0000000000
     44588     14863  TIP3      H1             -3.1725705720       39.4298375841       13.1709236648  W2        15560           0.0000000000
     44589     14863  TIP3      H2             -2.7962805720       39.2808075841       11.7121236648  W2        15560           0.0000000000
     44590     14864  TIP3      OH2            -8.7440705720       41.6124275841       11.9018736648  W2        15561           0.0000000000
     44591     14864  TIP3      H1             -8.6014805720       40.6661275841       11.9220336648  W2        15561           0.0000000000
     44592     14864  TIP3      H2             -8.8501705720       41.8194075841       10.9733636648  W2        15561           0.0000000000
     44593     14865  TIP3      OH2           -15.5892405720       39.7140675841        9.1743536648  W2        15562           0.0000000000
     44594     14865  TIP3      H1            -15.5461305720       40.5739175841        8.7559836648  W2        15562           0.0000000000
     44595     14865  TIP3      H2            -16.0468305720       39.1615375841        8.5406736648  W2        15562           0.0000000000
     44596     14866  TIP3      OH2            -7.8669705720       39.8446275841        7.5751836648  W2        15563           0.0000000000
     44597     14866  TIP3      H1             -7.2205405720       39.5159475841        8.1999436648  W2        15563           0.0000000000
     44598     14866  TIP3      H2             -7.3570305720       40.3625275841        6.9523236648  W2        15563           0.0000000000
     44599     14867  TIP3      OH2           -18.9690905720       42.1106475841        9.9364936648  W2        15564           0.0000000000
     44600     14867  TIP3      H1            -18.3154305720       41.5608175841       10.3685036648  W2        15564           0.0000000000
     44601     14867  TIP3      H2            -18.9451605720       41.8365475841        9.0196936648  W2        15564           0.0000000000
     44602     14868  TIP3      OH2           -13.8126405720       43.6607775841        9.1516436648  W2        15565           0.0000000000
     44603     14868  TIP3      H1            -13.1965405720       43.1343175841        9.6610436648  W2        15565           0.0000000000
     44604     14868  TIP3      H2            -14.3987605720       43.0206475841        8.7480036648  W2        15565           0.0000000000
     44605     14869  TIP3      OH2            -2.8303305720       40.2976375841       14.6709936648  W2        15566           0.0000000000
     44606     14869  TIP3      H1             -3.5188705720       40.9557075841       14.5756536648  W2        15566           0.0000000000
     44607     14869  TIP3      H2             -2.8148705720       40.1004275841       15.6075336648  W2        15566           0.0000000000
     44608     14870  TIP3      OH2           -16.7790505720       38.6319075841       13.2484336648  W2        15567           0.0000000000
     44609     14870  TIP3      H1            -16.9978805720       39.1619675841       12.4820336648  W2        15567           0.0000000000
     44610     14870  TIP3      H2            -17.4469605720       38.8584575841       13.8955736648  W2        15567           0.0000000000
     44611     14871  TIP3      OH2            -9.4100705720       48.1320175841        6.7923436648  W2        15568           0.0000000000
     44612     14871  TIP3      H1             -9.7055605720       47.8092475841        5.9410336648  W2        15568           0.0000000000
     44613     14871  TIP3      H2             -9.7342905720       49.0316875841        6.8336036648  W2        15568           0.0000000000
     44614     14872  TIP3      OH2           -14.2099105720       46.3074775841       13.5358036648  W2        15569           0.0000000000
     44615     14872  TIP3      H1            -14.9500005720       46.9056275841       13.6393236648  W2        15569           0.0000000000
     44616     14872  TIP3      H2            -13.4959605720       46.8614375841       13.2201636648  W2        15569           0.0000000000
     44617     14873  TIP3      OH2            -6.1031305720       39.1355575841        9.5557736648  W2        15570           0.0000000000
     44618     14873  TIP3      H1             -6.3183305720       38.3698975841       10.0883736648  W2        15570           0.0000000000
     44619     14873  TIP3      H2             -5.4473905720       39.6080175841       10.0686236648  W2        15570           0.0000000000
     44620     14874  TIP3      OH2           -17.1853205720       40.5240875841       11.2006536648  W2        15571           0.0000000000
     44621     14874  TIP3      H1            -16.5716905720       41.1568475841       11.5738936648  W2        15571           0.0000000000
     44622     14874  TIP3      H2            -16.6732505720       40.0515875841       10.5443436648  W2        15571           0.0000000000
     44623     14875  TIP3      OH2           -15.8024805720       48.2717775841       14.3229536648  W2        15572           0.0000000000
     44624     14875  TIP3      H1            -15.8077205720       49.1511275841       13.9448836648  W2        15572           0.0000000000
     44625     14875  TIP3      H2            -16.6560705720       48.1881875841       14.7479436648  W2        15572           0.0000000000
     44626     14876  TIP3      OH2           -19.6813905720       47.9425675841        5.1048836648  W2        15573           0.0000000000
     44627     14876  TIP3      H1            -19.9533005720       48.1716675841        4.2161736648  W2        15573           0.0000000000
     44628     14876  TIP3      H2            -19.6358205720       48.7804475841        5.5654136648  W2        15573           0.0000000000
     44629     14877  TIP3      OH2            -6.0564205720       49.5641575841       11.8177336648  W2        15574           0.0000000000
     44630     14877  TIP3      H1             -6.9980505720       49.6225475841       11.9794236648  W2        15574           0.0000000000
     44631     14877  TIP3      H2             -5.7798105720       50.4702075841       11.6807036648  W2        15574           0.0000000000
     44632     14878  TIP3      OH2            -5.7557205720       37.8506875841       13.2351236648  W2        15575           0.0000000000
     44633     14878  TIP3      H1             -6.4918005720       38.4613975841       13.1972536648  W2        15575           0.0000000000
     44634     14878  TIP3      H2             -5.0723205720       38.2655875841       12.7087636648  W2        15575           0.0000000000
     44635     14879  TIP3      OH2           -12.7525805720       35.9374175841       10.7009236648  W2        15576           0.0000000000
     44636     14879  TIP3      H1            -12.8701605720       34.9890175841       10.6467536648  W2        15576           0.0000000000
     44637     14879  TIP3      H2            -13.6075705720       36.2700275841       10.9740336648  W2        15576           0.0000000000
     44638     14880  TIP3      OH2            -7.8043005720       51.3455075841        8.4428936648  W2        15577           0.0000000000
     44639     14880  TIP3      H1             -7.3790705720       50.6382975841        7.9578536648  W2        15577           0.0000000000
     44640     14880  TIP3      H2             -7.4873005720       52.1467775841        8.0261136648  W2        15577           0.0000000000
     44641     14881  TIP3      OH2            -6.6446505720       49.2463575841        6.9515536648  W2        15578           0.0000000000
     44642     14881  TIP3      H1             -6.9021705720       48.5563675841        6.3401436648  W2        15578           0.0000000000
     44643     14881  TIP3      H2             -6.5735705720       48.8034775841        7.7971436648  W2        15578           0.0000000000
     44644     14882  TIP3      OH2            -4.9586305720       47.8130275841       15.4289036648  W2        15579           0.0000000000
     44645     14882  TIP3      H1             -4.8190005720       47.2212775841       14.6896036648  W2        15579           0.0000000000
     44646     14882  TIP3      H2             -4.7913505720       48.6856175841       15.0727836648  W2        15579           0.0000000000
     44647     14883  TIP3      OH2           -10.4860905720       44.7749775841        5.2015036648  W2        15580           0.0000000000
     44648     14883  TIP3      H1            -11.1975405720       45.3099475841        4.8495536648  W2        15580           0.0000000000
     44649     14883  TIP3      H2             -9.7951305720       44.8301875841        4.5413936648  W2        15580           0.0000000000
     44650     14884  TIP3      OH2           -10.4321705720       43.2324075841        2.2400036648  W2        15581           0.0000000000
     44651     14884  TIP3      H1             -9.7311805720       43.2550975841        2.8914036648  W2        15581           0.0000000000
     44652     14884  TIP3      H2            -10.1298805720       42.6043775841        1.5839336648  W2        15581           0.0000000000
     44653     14885  TIP3      OH2            -3.1167005720       44.1528275841       13.4949436648  W2        15582           0.0000000000
     44654     14885  TIP3      H1             -3.7692905720       44.8473875841       13.5840336648  W2        15582           0.0000000000
     44655     14885  TIP3      H2             -2.6516705720       44.3629175841       12.6851036648  W2        15582           0.0000000000
     44656     14886  TIP3      OH2            -7.0803205720       44.9843075841        6.1530936648  W2        15583           0.0000000000
     44657     14886  TIP3      H1             -7.8122205720       45.2126775841        6.7261536648  W2        15583           0.0000000000
     44658     14886  TIP3      H2             -6.6331005720       44.2705775841        6.6078436648  W2        15583           0.0000000000
     44659     14887  TIP3      OH2            -7.1829705720       43.1585675841       15.2207936648  W2        15584           0.0000000000
     44660     14887  TIP3      H1             -7.1030605720       43.9220075841       15.7926436648  W2        15584           0.0000000000
     44661     14887  TIP3      H2             -7.7842005720       43.4378075841       14.5303036648  W2        15584           0.0000000000
     44662     14888  TIP3      OH2           -15.4349505720       45.6149275841        8.0355936648  W2        15585           0.0000000000
     44663     14888  TIP3      H1            -15.7654305720       45.2442675841        7.2172936648  W2        15585           0.0000000000
     44664     14888  TIP3      H2            -14.8465405720       44.9443275841        8.3824236648  W2        15585           0.0000000000
     44665     14889  TIP3      OH2           -14.0682005720       49.0429875841       10.7168136648  W2        15586           0.0000000000
     44666     14889  TIP3      H1            -14.1630705720       48.4642975841        9.9602736648  W2        15586           0.0000000000
     44667     14889  TIP3      H2            -13.3388405720       48.6715575841       11.2130936648  W2        15586           0.0000000000
     44668     14890  TIP3      OH2           -15.0684005720       44.3834875841       11.6690936648  W2        15587           0.0000000000
     44669     14890  TIP3      H1            -14.5031505720       44.5049075841       10.9062136648  W2        15587           0.0000000000
     44670     14890  TIP3      H2            -14.7495105720       45.0209875841       12.3079436648  W2        15587           0.0000000000
     44671     14891  TIP3      OH2            -8.7591805720       49.8866775841       12.4031436648  W2        15588           0.0000000000
     44672     14891  TIP3      H1             -8.9995205720       50.5489875841       13.0510636648  W2        15588           0.0000000000
     44673     14891  TIP3      H2             -8.9573605720       49.0521975841       12.8281036648  W2        15588           0.0000000000
     44674     14892  TIP3      OH2           -14.1883305720       48.7827575841       16.3862836648  W2        15589           0.0000000000
     44675     14892  TIP3      H1            -14.4995805720       49.5650775841       16.8416036648  W2        15589           0.0000000000
     44676     14892  TIP3      H2            -14.8383105720       48.6296675841       15.7004836648  W2        15589           0.0000000000
     44677     14893  TIP3      OH2            -8.2093705720       44.1465975841        3.8382136648  W2        15590           0.0000000000
     44678     14893  TIP3      H1             -7.6298205720       44.2966275841        4.5851036648  W2        15590           0.0000000000
     44679     14893  TIP3      H2             -7.7953705720       44.6173375841        3.1148536648  W2        15590           0.0000000000
     44680     14894  TIP3      OH2           -17.2683405720       44.9808675841       15.6148536648  W2        15591           0.0000000000
     44681     14894  TIP3      H1            -17.1980205720       45.6315475841       16.3133536648  W2        15591           0.0000000000
     44682     14894  TIP3      H2            -18.1591205720       45.0836175841       15.2799436648  W2        15591           0.0000000000
     44683     14895  TIP3      OH2           -10.4828805720       50.8834475841        7.2735236648  W2        15592           0.0000000000
     44684     14895  TIP3      H1            -10.0091205720       51.1790775841        8.0509436648  W2        15592           0.0000000000
     44685     14895  TIP3      H2            -11.0459505720       51.6216075841        7.0404836648  W2        15592           0.0000000000
     44686     14896  TIP3      OH2           -15.9487405720       50.8542575841       17.1496636648  W2        15593           0.0000000000
     44687     14896  TIP3      H1            -15.9412105720       50.7182275841       16.2022136648  W2        15593           0.0000000000
     44688     14896  TIP3      H2            -16.8647005720       50.7370675841       17.4016636648  W2        15593           0.0000000000
     44689     14897  TIP3      OH2            -4.5105305720       35.8966375841        3.6511836648  W2        15594           0.0000000000
     44690     14897  TIP3      H1             -5.4104605720       36.0355375841        3.9462436648  W2        15594           0.0000000000
     44691     14897  TIP3      H2             -4.2586905720       36.7280975841        3.2493536648  W2        15594           0.0000000000
     44692     14898  TIP3      OH2           -16.4446805720       44.6843575841        5.6248736648  W2        15595           0.0000000000
     44693     14898  TIP3      H1            -16.7365505720       45.4525275841        5.1340036648  W2        15595           0.0000000000
     44694     14898  TIP3      H2            -17.1191605720       44.0249775841        5.4620136648  W2        15595           0.0000000000
     44695     14899  TIP3      OH2            -3.3213905720       50.2628775841        2.0275736648  W2        15596           0.0000000000
     44696     14899  TIP3      H1             -3.2480405720       51.2018975841        2.1981036648  W2        15596           0.0000000000
     44697     14899  TIP3      H2             -2.4158805720       49.9577375841        1.9713036648  W2        15596           0.0000000000
     44698     14900  TIP3      OH2           -20.3516705720       47.0472775841       14.4398536648  W2        15597           0.0000000000
     44699     14900  TIP3      H1            -20.8528305720       47.0192175841       13.6248236648  W2        15597           0.0000000000
     44700     14900  TIP3      H2            -20.3463005720       46.1415975841       14.7495836648  W2        15597           0.0000000000
     44701     14901  TIP3      OH2           -20.6014005720       49.8276575841       11.3238736648  W2        15598           0.0000000000
     44702     14901  TIP3      H1            -19.6553405720       49.6833575841       11.3048236648  W2        15598           0.0000000000
     44703     14901  TIP3      H2            -20.7137705720       50.6119375841       11.8609936648  W2        15598           0.0000000000
     44704     14902  TIP3      OH2            -2.4035505720       50.4936275841       17.0062436648  W2        15599           0.0000000000
     44705     14902  TIP3      H1             -2.4528705720       49.5384375841       16.9690036648  W2        15599           0.0000000000
     44706     14902  TIP3      H2             -3.2303205720       50.7611575841       17.4076236648  W2        15599           0.0000000000
     44707     14903  TIP3      OH2           -11.4251505720       50.0675475841       15.8823836648  W2        15600           0.0000000000
     44708     14903  TIP3      H1            -11.3376905720       50.8940075841       16.3572936648  W2        15600           0.0000000000
     44709     14903  TIP3      H2            -12.2886405720       49.7379275841       16.1313136648  W2        15600           0.0000000000
     44710     14904  TIP3      OH2           -11.0105705720       53.8399175841        5.6884436648  W2        15601           0.0000000000
     44711     14904  TIP3      H1            -11.0859705720       53.7186375841        4.7419636648  W2        15601           0.0000000000
     44712     14904  TIP3      H2            -10.9777005720       54.7891875841        5.8069036648  W2        15601           0.0000000000
     44713     14905  TIP3      OH2           -17.3571905720       52.6286175841        7.4693436648  W2        15602           0.0000000000
     44714     14905  TIP3      H1            -17.2051505720       52.2806575841        8.3479936648  W2        15602           0.0000000000
     44715     14905  TIP3      H2            -18.2081505720       52.2723475841        7.2140636648  W2        15602           0.0000000000
     44716     14906  TIP3      OH2            -7.9089705720       52.9939375841        2.6906836648  W2        15603           0.0000000000
     44717     14906  TIP3      H1             -7.5341305720       52.2495475841        2.2199436648  W2        15603           0.0000000000
     44718     14906  TIP3      H2             -7.9046005720       52.7239975841        3.6090136648  W2        15603           0.0000000000
     44719     14907  TIP3      OH2            -8.2401605720       52.9196475841        5.4399036648  W2        15604           0.0000000000
     44720     14907  TIP3      H1             -9.1751805720       53.0198375841        5.6186036648  W2        15604           0.0000000000
     44721     14907  TIP3      H2             -7.9599705720       52.2102475841        6.0182236648  W2        15604           0.0000000000
     44722     14908  TIP3      OH2            -5.2515705720       41.9868775841       17.4864636648  W2        15605           0.0000000000
     44723     14908  TIP3      H1             -5.6588905720       42.4674375841       16.7657936648  W2        15605           0.0000000000
     44724     14908  TIP3      H2             -5.2110005720       41.0814775841       17.1785436648  W2        15605           0.0000000000
     44725     14909  TIP3      OH2           -18.1026205720       48.3708175841       15.4831336648  W2        15606           0.0000000000
     44726     14909  TIP3      H1            -17.8864905720       48.0093775841       16.3427136648  W2        15606           0.0000000000
     44727     14909  TIP3      H2            -18.9581505720       47.9961975841       15.2734836648  W2        15606           0.0000000000
     44728     14910  TIP3      OH2           -15.4838205720       36.8408675841       11.4785536648  W2        15607           0.0000000000
     44729     14910  TIP3      H1            -16.3454505720       36.7536875841       11.0708436648  W2        15607           0.0000000000
     44730     14910  TIP3      H2            -15.5062505720       37.6968775841       11.9063136648  W2        15607           0.0000000000
     44731     14911  TIP3      OH2           -10.8210405720       36.5629075841       14.8532536648  W2        15608           0.0000000000
     44732     14911  TIP3      H1            -10.4007305720       36.1476175841       15.6063136648  W2        15608           0.0000000000
     44733     14911  TIP3      H2            -11.7540805720       36.3842375841       14.9704536648  W2        15608           0.0000000000
     44734     14912  TIP3      OH2            -7.4945505720       40.3184275841       15.7067036648  W2        15609           0.0000000000
     44735     14912  TIP3      H1             -8.0086005720       40.1926475841       16.5043036648  W2        15609           0.0000000000
     44736     14912  TIP3      H2             -7.6500805720       41.2307375841       15.4623236648  W2        15609           0.0000000000
     44737     14913  TIP3      OH2            -6.7320605720       45.1794275841        1.4680036648  W2        15610           0.0000000000
     44738     14913  TIP3      H1             -6.6899805720       44.9568175841        0.5380036648  W2        15610           0.0000000000
     44739     14913  TIP3      H2             -5.8828505720       45.5781375841        1.6579936648  W2        15610           0.0000000000
     44740     14914  TIP3      OH2           -11.1593105720       39.0552475841        2.1383336648  W2        15611           0.0000000000
     44741     14914  TIP3      H1            -11.4128305720       39.0744075841        3.0611436648  W2        15611           0.0000000000
     44742     14914  TIP3      H2            -11.4161005720       38.1837875841        1.8369536648  W2        15611           0.0000000000
     44743     14915  TIP3      OH2           -15.3928105720       41.8063175841       12.5735736648  W2        15612           0.0000000000
     44744     14915  TIP3      H1            -16.0346005720       41.7660475841       13.2825836648  W2        15612           0.0000000000
     44745     14915  TIP3      H2            -15.3556105720       42.7327875841       12.3358736648  W2        15612           0.0000000000
     44746     14916  TIP3      OH2           -15.3959005720       42.0273275841        7.4855736648  W2        15613           0.0000000000
     44747     14916  TIP3      H1            -16.2886105720       41.6869375841        7.4269536648  W2        15613           0.0000000000
     44748     14916  TIP3      H2            -14.9452405720       41.6504175841        6.7298936648  W2        15613           0.0000000000
     44749     14917  TIP3      OH2            -9.8603505720       42.4433575841        6.3026536648  W2        15614           0.0000000000
     44750     14917  TIP3      H1            -10.2693205720       43.2582175841        6.0111336648  W2        15614           0.0000000000
     44751     14917  TIP3      H2             -9.1397305720       42.3033675841        5.6883636648  W2        15614           0.0000000000
     44752     14918  TIP3      OH2           -10.7581905720       42.6189975841       17.7907236648  W2        15615           0.0000000000
     44753     14918  TIP3      H1            -11.3208105720       41.9141575841       18.1115036648  W2        15615           0.0000000000
     44754     14918  TIP3      H2             -9.9318505720       42.4981875841       18.2584836648  W2        15615           0.0000000000
     44755     14919  TIP3      OH2            -8.8555805720       41.8893975841        9.1166236648  W2        15616           0.0000000000
     44756     14919  TIP3      H1             -9.0511305720       42.4950775841        8.4016836648  W2        15616           0.0000000000
     44757     14919  TIP3      H2             -8.6743205720       41.0559175841        8.6822536648  W2        15616           0.0000000000
     44758     14920  TIP3      OH2           -17.6427605720       42.1266675841       14.4407736648  W2        15617           0.0000000000
     44759     14920  TIP3      H1            -17.6808205720       42.5268275841       15.3094836648  W2        15617           0.0000000000
     44760     14920  TIP3      H2            -18.1336505720       41.3099075841       14.5310636648  W2        15617           0.0000000000
     44761     14921  TIP3      OH2           -14.2770205720       39.5008975841        1.2393736648  W2        15618           0.0000000000
     44762     14921  TIP3      H1            -14.7079505720       39.0559075841        1.9691136648  W2        15618           0.0000000000
     44763     14921  TIP3      H2            -14.9951505720       39.8725275841        0.7271236648  W2        15618           0.0000000000
     44764     14922  TIP3      OH2           -21.0346805720       39.2428475841        8.2912436648  W2        15619           0.0000000000
     44765     14922  TIP3      H1            -20.4039105720       39.2140575841        9.0106336648  W2        15619           0.0000000000
     44766     14922  TIP3      H2            -20.5852505720       38.8177175841        7.5608336648  W2        15619           0.0000000000
     44767     14923  TIP3      OH2           -19.7604705720       39.9890475841        3.7152836648  W2        15620           0.0000000000
     44768     14923  TIP3      H1            -19.2863005720       40.5800375841        3.1303736648  W2        15620           0.0000000000
     44769     14923  TIP3      H2            -20.4778305720       40.5193375841        4.0622936648  W2        15620           0.0000000000
     44770     14924  TIP3      OH2            -9.5916605720       43.5275275841       13.7878636648  W2        15621           0.0000000000
     44771     14924  TIP3      H1             -9.2681805720       42.8964975841       13.1449136648  W2        15621           0.0000000000
     44772     14924  TIP3      H2            -10.0317305720       42.9927475841       14.4486036648  W2        15621           0.0000000000
     44773     14925  TIP3      OH2           -12.8143705720       39.4550775841        8.5719836648  W2        15622           0.0000000000
     44774     14925  TIP3      H1            -13.7252605720       39.5117575841        8.8605836648  W2        15622           0.0000000000
     44775     14925  TIP3      H2            -12.3090805720       39.3946275841        9.3827036648  W2        15622           0.0000000000
     44776     14926  TIP3      OH2           -17.9860305720       41.0837075841        7.3987436648  W2        15623           0.0000000000
     44777     14926  TIP3      H1            -18.8752305720       41.1832575841        7.0587036648  W2        15623           0.0000000000
     44778     14926  TIP3      H2            -17.6895405720       40.2420075841        7.0525336648  W2        15623           0.0000000000
     44779     14927  TIP3      OH2           -14.3328505720       41.0839675841        5.0552036648  W2        15624           0.0000000000
     44780     14927  TIP3      H1            -13.4013005720       41.2129675841        5.2335136648  W2        15624           0.0000000000
     44781     14927  TIP3      H2            -14.5478205720       41.7533975841        4.4056736648  W2        15624           0.0000000000
     44782     14928  TIP3      OH2            -8.4091805720       38.6897075841       11.8361636648  W2        15625           0.0000000000
     44783     14928  TIP3      H1             -9.0860205720       38.8210175841       12.5001336648  W2        15625           0.0000000000
     44784     14928  TIP3      H2             -8.8946905720       38.5346575841       11.0259336648  W2        15625           0.0000000000
     44785     14929  TIP3      OH2           -15.6588305720       42.2781875841        2.6218136648  W2        15626           0.0000000000
     44786     14929  TIP3      H1            -16.2013205720       41.8985675841        1.9305736648  W2        15626           0.0000000000
     44787     14929  TIP3      H2            -14.8253405720       42.4726575841        2.1932236648  W2        15626           0.0000000000
     44788     14930  TIP3      OH2           -17.5236905720       46.8353775841       17.7209736648  W2        15628           0.0000000000
     44789     14930  TIP3      H1            -16.7914505720       47.0899675841       18.2824236648  W2        15628           0.0000000000
     44790     14930  TIP3      H2            -18.3038205720       47.0399175841       18.2365136648  W2        15628           0.0000000000
     44791     14931  TIP3      OH2           -11.4944005720       42.2423775841       10.4589436648  W2        15629           0.0000000000
     44792     14931  TIP3      H1            -10.9300605720       41.6960375841        9.9119036648  W2        15629           0.0000000000
     44793     14931  TIP3      H2            -11.6420605720       41.7205675841       11.2477036648  W2        15629           0.0000000000
     44794     14932  TIP3      OH2           -16.4924305720       38.3789875841        6.8774236648  W2        15630           0.0000000000
     44795     14932  TIP3      H1            -16.8094805720       37.4765175841        6.8419636648  W2        15630           0.0000000000
     44796     14932  TIP3      H2            -15.7110205720       38.3807275841        6.3245836648  W2        15630           0.0000000000
     44797     14933  TIP3      OH2           -12.8678105720       40.6309875841       12.8729836648  W2        15631           0.0000000000
     44798     14933  TIP3      H1            -13.7032805720       41.0849375841       12.9832236648  W2        15631           0.0000000000
     44799     14933  TIP3      H2            -12.3437505720       40.9068375841       13.6249736648  W2        15631           0.0000000000
     44800     14934  TIP3      OH2           -12.3235505720       46.8437575841        4.5576236648  W2        15632           0.0000000000
     44801     14934  TIP3      H1            -13.0684505720       46.3362875841        4.2354136648  W2        15632           0.0000000000
     44802     14934  TIP3      H2            -12.4578305720       46.8925575841        5.5041036648  W2        15632           0.0000000000
     44803     14935  TIP3      OH2            -5.1736605720       45.9765775841       13.3443836648  W2        15633           0.0000000000
     44804     14935  TIP3      H1             -4.5317805720       46.4332075841       12.8006036648  W2        15633           0.0000000000
     44805     14935  TIP3      H2             -6.0039705720       46.0898175841       12.8817936648  W2        15633           0.0000000000
     44806     14936  TIP3      OH2            -8.4258705720       39.6577475841        2.7568836648  W2        15634           0.0000000000
     44807     14936  TIP3      H1             -9.3644505720       39.7693075841        2.6057636648  W2        15634           0.0000000000
     44808     14936  TIP3      H2             -8.1286605720       40.5144375841        3.0634536648  W2        15634           0.0000000000
     44809     14937  TIP3      OH2           -10.8043405720       47.0280875841       15.7945336648  W2        15635           0.0000000000
     44810     14937  TIP3      H1            -11.1497305720       46.6463275841       16.6014936648  W2        15635           0.0000000000
     44811     14937  TIP3      H2            -11.0043305720       47.9614475841       15.8658236648  W2        15635           0.0000000000
     44812     14938  TIP3      OH2            -7.7075205720       41.5250175841        4.4176236648  W2        15636           0.0000000000
     44813     14938  TIP3      H1             -6.8156205720       41.3875175841        4.7367436648  W2        15636           0.0000000000
     44814     14938  TIP3      H2             -7.6511605720       42.3156275841        3.8809736648  W2        15636           0.0000000000
     44815     14939  TIP3      OH2           -17.1987205720       46.1387575841       10.3274136648  W2        15637           0.0000000000
     44816     14939  TIP3      H1            -16.4540005720       46.1363275841        9.7260636648  W2        15637           0.0000000000
     44817     14939  TIP3      H2            -17.1210605720       45.3151375841       10.8089236648  W2        15637           0.0000000000
     44818     14940  TIP3      OH2           -10.1981405720       48.3021875841        3.5830836648  W2        15638           0.0000000000
     44819     14940  TIP3      H1            -10.4933005720       49.1289775841        3.9645636648  W2        15638           0.0000000000
     44820     14940  TIP3      H2            -10.9011405720       47.6828775841        3.7792236648  W2        15638           0.0000000000
     44821     14941  TIP3      OH2           -20.1907505720       44.5994475841       15.6422636648  W2        15639           0.0000000000
     44822     14941  TIP3      H1            -19.9678905720       44.1814075841       16.4740136648  W2        15639           0.0000000000
     44823     14941  TIP3      H2            -20.7927405720       43.9869475841       15.2195436648  W2        15639           0.0000000000
     44824     14942  TIP3      OH2            -8.5539805720       49.4896375841       15.7450336648  W2        15641           0.0000000000
     44825     14942  TIP3      H1             -9.4545505720       49.6728975841       15.4774236648  W2        15641           0.0000000000
     44826     14942  TIP3      H2             -8.5198705720       49.7485675841       16.6659136648  W2        15641           0.0000000000
     44827     14943  TIP3      OH2            -2.8226505720       41.7344275841        4.1122936648  W2        15642           0.0000000000
     44828     14943  TIP3      H1             -3.3770205720       41.3382275841        3.4400436648  W2        15642           0.0000000000
     44829     14943  TIP3      H2             -2.7222905720       42.6449475841        3.8346236648  W2        15642           0.0000000000
     44830     14944  TIP3      OH2            -2.8594505720       47.5345975841       16.9494436648  W2        15643           0.0000000000
     44831     14944  TIP3      H1             -3.7106005720       47.7729775841       16.5820836648  W2        15643           0.0000000000
     44832     14944  TIP3      H2             -2.2691105720       47.5179175841       16.1961536648  W2        15643           0.0000000000
     44833     14945  TIP3      OH2            -4.5274805720       50.5204675841        4.5775036648  W2        15644           0.0000000000
     44834     14945  TIP3      H1             -4.9003705720       49.6948475841        4.8865636648  W2        15644           0.0000000000
     44835     14945  TIP3      H2             -4.2501305720       50.3374075841        3.6798436648  W2        15644           0.0000000000
     44836     14946  TIP3      OH2            -7.3670905720       45.3284175841       11.5986936648  W2        15645           0.0000000000
     44837     14946  TIP3      H1             -8.2954005720       45.0966075841       11.5716236648  W2        15645           0.0000000000
     44838     14946  TIP3      H2             -6.9159805720       44.5513975841       11.2685736648  W2        15645           0.0000000000
     44839     14947  TIP3      OH2           -14.8237805720       49.6565775841        7.7315636648  W2        15646           0.0000000000
     44840     14947  TIP3      H1            -14.2965605720       50.4300175841        7.5314436648  W2        15646           0.0000000000
     44841     14947  TIP3      H2            -15.7039305720       49.8814975841        7.4299636648  W2        15646           0.0000000000
     44842     14948  TIP3      OH2           -19.0690105720       44.5189875841        2.3188036648  W2        15647           0.0000000000
     44843     14948  TIP3      H1            -18.4530205720       45.1457075841        2.6982836648  W2        15647           0.0000000000
     44844     14948  TIP3      H2            -19.9307505720       44.8349675841        2.5904536648  W2        15647           0.0000000000
     44845     14949  TIP3      OH2           -13.3965505720       47.3195675841        7.3079936648  W2        15648           0.0000000000
     44846     14949  TIP3      H1            -13.6375505720       48.2450075841        7.3495236648  W2        15648           0.0000000000
     44847     14949  TIP3      H2            -14.1371905720       46.8606975841        7.7043836648  W2        15648           0.0000000000
     44848     14950  TIP3      OH2           -12.8818905720       51.4689275841       13.6231036648  W2        15649           0.0000000000
     44849     14950  TIP3      H1            -12.5194205720       52.3234875841       13.3895436648  W2        15649           0.0000000000
     44850     14950  TIP3      H2            -12.3503705720       51.1770875841       14.3637336648  W2        15649           0.0000000000
     44851     14951  TIP3      OH2           -14.7134705720       52.3413275841        6.8532136648  W2        15650           0.0000000000
     44852     14951  TIP3      H1            -15.6634205720       52.4470675841        6.9045436648  W2        15650           0.0000000000
     44853     14951  TIP3      H2            -14.3616605720       53.1620675841        7.1979636648  W2        15650           0.0000000000
     44854     14952  TIP3      OH2            -9.3378105720       47.5679975841       13.3236636648  W2        15651           0.0000000000
     44855     14952  TIP3      H1             -9.7636805720       47.3401675841       14.1500636648  W2        15651           0.0000000000
     44856     14952  TIP3      H2             -8.7572305720       46.8291775841       13.1411936648  W2        15651           0.0000000000
     44857     14953  TIP3      OH2            -7.1349205720       48.4970475841        2.3975636648  W2        15652           0.0000000000
     44858     14953  TIP3      H1             -6.7816105720       48.1170275841        3.2019136648  W2        15652           0.0000000000
     44859     14953  TIP3      H2             -8.0835705720       48.4035275841        2.4844936648  W2        15652           0.0000000000
     44860     14954  TIP3      OH2            -6.6793905720       52.1199475841       15.7931436648  W2        15653           0.0000000000
     44861     14954  TIP3      H1             -7.2810705720       51.5642375841       15.2977736648  W2        15653           0.0000000000
     44862     14954  TIP3      H2             -6.3980205720       52.7869275841       15.1668836648  W2        15653           0.0000000000
     44863     14955  TIP3      OH2            -2.6314805720       52.9762975841        2.5985836648  W2        15654           0.0000000000
     44864     14955  TIP3      H1             -1.8876905720       53.5623475841        2.4587436648  W2        15654           0.0000000000
     44865     14955  TIP3      H2             -3.3256705720       53.5448775841        2.9318236648  W2        15654           0.0000000000
     44866     14956  TIP3      OH2           -18.5568005720       39.3527175841       15.2004036648  W2        15655           0.0000000000
     44867     14956  TIP3      H1            -19.4495705720       39.6912575841       15.1328036648  W2        15655           0.0000000000
     44868     14956  TIP3      H2            -18.6555205720       38.4973275841       15.6184836648  W2        15655           0.0000000000
     44869     14957  TIP3      OH2            -6.2689905720       47.1692475841        4.6243536648  W2        15656           0.0000000000
     44870     14957  TIP3      H1             -6.5462305720       46.4411775841        5.1804636648  W2        15656           0.0000000000
     44871     14957  TIP3      H2             -5.3416905720       47.2884475841        4.8296136648  W2        15656           0.0000000000
     44872     14958  TIP3      OH2           -18.9056005720       51.1571575841       13.6353436648  W2        15657           0.0000000000
     44873     14958  TIP3      H1            -18.6885705720       50.2253975841       13.6043136648  W2        15657           0.0000000000
     44874     14958  TIP3      H2            -18.6592505720       51.4316575841       14.5186236648  W2        15657           0.0000000000
     44875     14959  TIP3      OH2           -13.0441405720       49.6086575841        0.8445636648  W2        15658           0.0000000000
     44876     14959  TIP3      H1            -12.8051605720       48.8604675841        0.2974536648  W2        15658           0.0000000000
     44877     14959  TIP3      H2            -13.3130105720       49.2208275841        1.6773436648  W2        15658           0.0000000000
     44878     14960  TIP3      OH2           -14.1070805720       49.1790375841        3.3008236648  W2        15659           0.0000000000
     44879     14960  TIP3      H1            -13.9602805720       48.6590175841        4.0909136648  W2        15659           0.0000000000
     44880     14960  TIP3      H2            -14.1099105720       50.0857975841        3.6074136648  W2        15659           0.0000000000
     44881     14961  TIP3      OH2           -17.6539705720       46.4313675841        3.8113636648  W2        15660           0.0000000000
     44882     14961  TIP3      H1            -18.3400405720       46.7836175841        4.3783336648  W2        15660           0.0000000000
     44883     14961  TIP3      H2            -17.1311805720       47.1943275841        3.5647936648  W2        15660           0.0000000000
     44884     14962  TIP3      OH2            -9.8224605720       39.0937475841       14.0902636648  W2        15661           0.0000000000
     44885     14962  TIP3      H1             -9.1236705720       39.1676175841       14.7402336648  W2        15661           0.0000000000
     44886     14962  TIP3      H2            -10.2033205720       38.2292475841       14.2445536648  W2        15661           0.0000000000
     44887     14963  TIP3      OH2            -9.0379705720       38.7459175841        5.1874936648  W2        15662           0.0000000000
     44888     14963  TIP3      H1             -8.8181405720       39.2174575841        4.3840336648  W2        15662           0.0000000000
     44889     14963  TIP3      H2             -8.4795705720       39.1401775841        5.8575536648  W2        15662           0.0000000000
     44890     14964  TIP3      OH2           -11.3693605720       50.8763975841        4.0502436648  W2        15663           0.0000000000
     44891     14964  TIP3      H1            -12.1857505720       51.3733675841        4.1026736648  W2        15663           0.0000000000
     44892     14964  TIP3      H2            -10.8397305720       51.3517475841        3.4101236648  W2        15663           0.0000000000
     44893     14965  TIP3      OH2           -11.8379805720       40.4737975841        6.0223336648  W2        15664           0.0000000000
     44894     14965  TIP3      H1            -11.0257205720       40.9781175841        6.0685036648  W2        15664           0.0000000000
     44895     14965  TIP3      H2            -12.0826805720       40.3287675841        6.9362936648  W2        15664           0.0000000000
     44896     14966  TIP3      OH2           -11.3023405720       41.4600675841       15.2069936648  W2        15665           0.0000000000
     44897     14966  TIP3      H1            -11.1833105720       42.0336075841       15.9640336648  W2        15665           0.0000000000
     44898     14966  TIP3      H2            -10.6468805720       40.7720075841       15.3217736648  W2        15665           0.0000000000
     44899     14967  TIP3      OH2           -10.9543105720       37.5550975841        6.9604436648  W2        15666           0.0000000000
     44900     14967  TIP3      H1            -11.3009605720       38.1721575841        7.6048736648  W2        15666           0.0000000000
     44901     14967  TIP3      H2            -10.2956205720       38.0556675841        6.4789936648  W2        15666           0.0000000000
     44902     14968  TIP3      OH2           -14.0310505720       51.9201175841        4.0319336648  W2        15667           0.0000000000
     44903     14968  TIP3      H1            -13.8701805720       52.7198675841        3.5311936648  W2        15667           0.0000000000
     44904     14968  TIP3      H2            -14.2282705720       52.2267175841        4.9169936648  W2        15667           0.0000000000
     44905     14969  TIP3      OH2           -15.2966105720       38.6180375841        3.6476936648  W2        15668           0.0000000000
     44906     14969  TIP3      H1            -15.3801305720       39.5063475841        3.9943336648  W2        15668           0.0000000000
     44907     14969  TIP3      H2            -14.4065805720       38.3527075841        3.8793736648  W2        15668           0.0000000000
     44908     14970  TIP3      OH2            -5.0977605720       39.3670975841       16.0419636648  W2        15669           0.0000000000
     44909     14970  TIP3      H1             -6.0141805720       39.6292675841       15.9543336648  W2        15669           0.0000000000
     44910     14970  TIP3      H2             -4.7622605720       39.3639975841       15.1454936648  W2        15669           0.0000000000
     44911     14971  TIP3      OH2            -6.4956605720       43.1171975841       10.1376936648  W2        15670           0.0000000000
     44912     14971  TIP3      H1             -7.2932205720       42.7022175841        9.8091936648  W2        15670           0.0000000000
     44913     14971  TIP3      H2             -6.0505505720       42.4265675841       10.6287436648  W2        15670           0.0000000000
     44914     14972  TIP3      OH2           -17.0380805720       49.0452575841        2.7081436648  W2        15671           0.0000000000
     44915     14972  TIP3      H1            -16.4459305720       49.7447375841        2.9843836648  W2        15671           0.0000000000
     44916     14972  TIP3      H2            -16.5787805720       48.6122075841        1.9886036648  W2        15671           0.0000000000
     44917     14973  TIP3      OH2           -18.7221605720       41.7095575841        1.8240836648  W2        15672           0.0000000000
     44918     14973  TIP3      H1            -18.7669005720       42.6488675841        2.0027836648  W2        15672           0.0000000000
     44919     14973  TIP3      H2            -19.6098405720       41.4740475841        1.5542936648  W2        15672           0.0000000000
     44920     14974  TIP3      OH2            -5.4092005720       52.3734475841       11.7600436648  W2        15673           0.0000000000
     44921     14974  TIP3      H1             -5.5647705720       53.0518875841       11.1029736648  W2        15673           0.0000000000
     44922     14974  TIP3      H2             -4.4765605720       52.4453775841       11.9631036648  W2        15673           0.0000000000
     44923     14975  TIP3      OH2           -17.9139605720       36.4912175841       10.4971836648  W2        15674           0.0000000000
     44924     14975  TIP3      H1            -18.1429805720       36.5504675841        9.5696836648  W2        15674           0.0000000000
     44925     14975  TIP3      H2            -18.3566205720       35.6997675841       10.8035936648  W2        15674           0.0000000000
     44926     14976  TIP3      OH2           -18.9836305720       50.4319275841        6.6577636648  W2        15675           0.0000000000
     44927     14976  TIP3      H1            -19.8157705720       50.9041975841        6.6849036648  W2        15675           0.0000000000
     44928     14976  TIP3      H2            -18.4378005720       50.9416875841        6.0590736648  W2        15675           0.0000000000
     44929     14977  TIP3      OH2           -11.0059605720       51.4717975841        0.9831636648  W2        15678           0.0000000000
     44930     14977  TIP3      H1            -11.6498605720       50.8406575841        1.3045336648  W2        15678           0.0000000000
     44931     14977  TIP3      H2            -10.2441305720       50.9405975841        0.7515136648  W2        15678           0.0000000000
     44932     14978  TIP3      OH2            -6.4016705720       51.2887875841        1.2169636648  W2        15680           0.0000000000
     44933     14978  TIP3      H1             -6.1186305720       50.4943075841        1.6696536648  W2        15680           0.0000000000
     44934     14978  TIP3      H2             -5.6618805720       51.5218875841        0.6560736648  W2        15680           0.0000000000
     44935     14979  TIP3      OH2           -15.4469405720       47.1982775841        1.0744536648  W2        15682           0.0000000000
     44936     14979  TIP3      H1            -15.3825305720       46.4042375841        1.6050936648  W2        15682           0.0000000000
     44937     14979  TIP3      H2            -14.7940205720       47.0795575841        0.3846536648  W2        15682           0.0000000000
     44938     14980  TIP3      OH2           -10.0946005720       48.2454475841        0.8102536648  W2        15684           0.0000000000
     44939     14980  TIP3      H1            -10.3631905720       48.4256575841        1.7111436648  W2        15684           0.0000000000
     44940     14980  TIP3      H2            -10.3010405720       47.3200675841        0.6788336648  W2        15684           0.0000000000
     44941     14981  TIP3      OH2            -7.3981805720       46.7402475841       15.7578636648  W2        15685           0.0000000000
     44942     14981  TIP3      H1             -6.6527005720       47.3286175841       15.6382636648  W2        15685           0.0000000000
     44943     14981  TIP3      H2             -8.1555005720       47.3222175841       15.8211736648  W2        15685           0.0000000000
     44944     14982  TIP3      OH2           -14.2975605720       45.1708975841        3.3802536648  W2        15687           0.0000000000
     44945     14982  TIP3      H1            -14.7573605720       44.6867275841        4.0661036648  W2        15687           0.0000000000
     44946     14982  TIP3      H2            -14.0426905720       44.5024375841        2.7443036648  W2        15687           0.0000000000
     44947     14983  TIP3      OH2           -15.0086305720       43.0636075841       15.7362136648  W2        15688           0.0000000000
     44948     14983  TIP3      H1            -15.6270205720       43.7382675841       16.0166836648  W2        15688           0.0000000000
     44949     14983  TIP3      H2            -14.6645105720       43.3849975841       14.9028336648  W2        15688           0.0000000000
     44950     14984  TIP3      OH2           -13.2265205720       43.4140775841        1.6425736648  W2        15689           0.0000000000
     44951     14984  TIP3      H1            -13.4070205720       43.2591975841        0.7154036648  W2        15689           0.0000000000
     44952     14984  TIP3      H2            -12.2764705720       43.5219475841        1.6873636648  W2        15689           0.0000000000
     44953     14985  TIP3      OH2            -3.8366905720       45.7684975841        1.0883836648  W2        15691           0.0000000000
     44954     14985  TIP3      H1             -4.1102105720       45.3440475841        0.2752136648  W2        15691           0.0000000000
     44955     14985  TIP3      H2             -3.7972805720       46.6999475841        0.8714236648  W2        15691           0.0000000000
     44956     14986  TIP3      OH2           -14.6692605720       40.4186875841       16.8185236648  W2        15692           0.0000000000
     44957     14986  TIP3      H1            -14.5191705720       39.6898175841       16.2164936648  W2        15692           0.0000000000
     44958     14986  TIP3      H2            -14.6670205720       41.1958575841       16.2597436648  W2        15692           0.0000000000
     44959     14987  TIP3      OH2           -14.2566905720       38.7882675841       14.3112636648  W2        15693           0.0000000000
     44960     14987  TIP3      H1            -13.7209405720       39.2399375841       13.6591936648  W2        15693           0.0000000000
     44961     14987  TIP3      H2            -15.1087305720       38.6802475841       13.8886736648  W2        15693           0.0000000000
     44962     14988  TIP3      OH2           -12.6748505720       44.2278875841       14.5507836648  W2        15694           0.0000000000
     44963     14988  TIP3      H1            -11.9243705720       44.0716375841       13.9775636648  W2        15694           0.0000000000
     44964     14988  TIP3      H2            -13.0140205720       45.0795475841       14.2753336648  W2        15694           0.0000000000
     44965     14989  TIP3      OH2            -6.9425105720       44.8315875841       17.6565836648  W2        15696           0.0000000000
     44966     14989  TIP3      H1             -7.2240105720       45.5410475841       17.0789636648  W2        15696           0.0000000000
     44967     14989  TIP3      H2             -6.0000805720       44.7588875841       17.5057036648  W2        15696           0.0000000000
     44968     14990  TIP3      OH2           -13.4511405720       36.2448375841       14.7426236648  W2        15698           0.0000000000
     44969     14990  TIP3      H1            -13.5491805720       37.1911575841       14.6372436648  W2        15698           0.0000000000
     44970     14990  TIP3      H2            -14.1935205720       35.8722175841       14.2669736648  W2        15698           0.0000000000
     44971     14991  TIP3      OH2            -9.4714305720       39.6937275841       17.3818136648  W2        15700           0.0000000000
     44972     14991  TIP3      H1            -10.4188905720       39.7256975841       17.5141436648  W2        15700           0.0000000000
     44973     14991  TIP3      H2             -9.1587605720       39.0684375841       18.0356336648  W2        15700           0.0000000000
     44974     14992  TIP3      OH2           -13.2293305720       35.5385775841       17.4139036648  W2        15703           0.0000000000
     44975     14992  TIP3      H1            -12.5174905720       34.8987975841       17.3998136648  W2        15703           0.0000000000
     44976     14992  TIP3      H2            -13.3302905720       35.8054075841       16.5002136648  W2        15703           0.0000000000
     44977     14993  TIP3      OH2           -13.3293505720       54.1044475841        2.6439336648  W2        15705           0.0000000000
     44978     14993  TIP3      H1            -12.3962805720       54.2623175841        2.7877736648  W2        15705           0.0000000000
     44979     14993  TIP3      H2            -13.5934705720       54.7797475841        2.0190836648  W2        15705           0.0000000000
     44980     14994  TIP3      OH2           -19.7608605720       48.7408275841        2.1267436648  W2        15706           0.0000000000
     44981     14994  TIP3      H1            -18.8469405720       48.8197175841        2.4001336648  W2        15706           0.0000000000
     44982     14994  TIP3      H2            -19.7535505720       48.0537875841        1.4603036648  W2        15706           0.0000000000
     44983     14995  TIP3      OH2           -21.1118005720       54.1336775841        7.2041336648  W2        15707           0.0000000000
     44984     14995  TIP3      H1            -21.7590905720       53.6718475841        6.6712536648  W2        15707           0.0000000000
     44985     14995  TIP3      H2            -20.7573405720       53.4620075841        7.7867536648  W2        15707           0.0000000000
     44986     14996  TIP3      OH2           -20.2418805720       52.2143775841        9.0087536648  W2        15708           0.0000000000
     44987     14996  TIP3      H1            -20.5762005720       51.3341075841        9.1807736648  W2        15708           0.0000000000
     44988     14996  TIP3      H2            -20.0196405720       52.5598775841        9.8733136648  W2        15708           0.0000000000
     44989     14997  TIP3      OH2            -2.6934005720       53.0240175841       11.9892336648  W2        15709           0.0000000000
     44990     14997  TIP3      H1             -2.7147305720       53.2088575841       12.9281736648  W2        15709           0.0000000000
     44991     14997  TIP3      H2             -2.0027805720       53.5924175841       11.6483736648  W2        15709           0.0000000000
     44992     14998  TIP3      OH2            -3.1301105720       52.5911275841       14.9111436648  W2        15710           0.0000000000
     44993     14998  TIP3      H1             -3.6172405720       51.8555375841       14.5398836648  W2        15710           0.0000000000
     44994     14998  TIP3      H2             -2.5808405720       52.1975175841       15.5890836648  W2        15710           0.0000000000
     44995     14999  TIP3      OH2            -3.3784105720       46.6373075841        5.0634236648  W2        15712           0.0000000000
     44996     14999  TIP3      H1             -2.5282705720       47.0583975841        5.1905836648  W2        15712           0.0000000000
     44997     14999  TIP3      H2             -3.3729005720       45.8973175841        5.6705636648  W2        15712           0.0000000000
     44998     15000  TIP3      OH2            -2.9838505720       44.6910475841        6.8869936648  W2        15713           0.0000000000
     44999     15000  TIP3      H1             -3.7103905720       44.2113075841        7.2847536648  W2        15713           0.0000000000
     45000     15000  TIP3      H2             -2.4025205720       44.8965175841        7.6191536648  W2        15713           0.0000000000
     45001     15001  TIP3      OH2            -3.2247305720       47.4757975841       11.8347536648  W2        15714           0.0000000000
     45002     15001  TIP3      H1             -2.3913105720       47.0977975841       11.5541136648  W2        15714           0.0000000000
     45003     15001  TIP3      H2             -3.1127005720       48.4189175841       11.7156636648  W2        15714           0.0000000000
     45004     15002  TIP3      OH2            -4.7385005720       50.3535475841       14.1415936648  W2        15715           0.0000000000
     45005     15002  TIP3      H1             -5.3859705720       50.6786975841       14.7671136648  W2        15715           0.0000000000
     45006     15002  TIP3      H2             -5.2561005720       49.9133175841       13.4674236648  W2        15715           0.0000000000
     45007     15003  TIP3      OH2            -2.7155405720       44.5918975841        3.2781236648  W2        15716           0.0000000000
     45008     15003  TIP3      H1             -3.2374305720       44.9483075841        2.5592136648  W2        15716           0.0000000000
     45009     15003  TIP3      H2             -2.7486205720       45.2666775841        3.9562136648  W2        15716           0.0000000000
     45010     15004  TIP3      OH2            -4.3666405720       41.8314575841        1.8288336648  W2        15717           0.0000000000
     45011     15004  TIP3      H1             -4.2702005720       42.4981575841        1.1488036648  W2        15717           0.0000000000
     45012     15004  TIP3      H2             -4.5066805720       41.0160875841        1.3473836648  W2        15717           0.0000000000
     45013     15005  TIP3      OH2            -5.1971705720       43.2116975841        7.4498636648  W2        15718           0.0000000000
     45014     15005  TIP3      H1             -5.3472905720       42.2665575841        7.4296436648  W2        15718           0.0000000000
     45015     15005  TIP3      H2             -5.5507205720       43.4928375841        8.2937736648  W2        15718           0.0000000000
     45016     15006  TIP3      OH2           -20.1619305720       45.2899175841       11.4602436648  W2        15719           0.0000000000
     45017     15006  TIP3      H1            -19.9776405720       45.2080875841       10.5245336648  W2        15719           0.0000000000
     45018     15006  TIP3      H2            -19.3126405720       45.1656175841       11.8838836648  W2        15719           0.0000000000
     45019     15007  TIP3      OH2            -4.3408805720       45.1820275841       17.0886936648  W2        15720           0.0000000000
     45020     15007  TIP3      H1             -3.7581505720       44.4472575841       17.2804136648  W2        15720           0.0000000000
     45021     15007  TIP3      H2             -3.7769505720       45.9540575841       17.1352736648  W2        15720           0.0000000000
     45022     15008  TIP3      OH2            -2.8441705720       43.0846075841       17.7732336648  W2        15721           0.0000000000
     45023     15008  TIP3      H1             -3.7075005720       42.7058175841       17.6077036648  W2        15721           0.0000000000
     45024     15008  TIP3      H2             -2.2398005720       42.3460875841       17.6988136648  W2        15721           0.0000000000
     45025     15009  TIP3      OH2            -5.1192605720       39.2394375841        0.9463836648  W2        15722           0.0000000000
     45026     15009  TIP3      H1             -4.5086805720       38.8681175841        1.5832036648  W2        15722           0.0000000000
     45027     15009  TIP3      H2             -5.9561105720       38.8181275841        1.1423836648  W2        15722           0.0000000000
     45028     15010  TIP3      OH2            -5.4866905720       40.7942775841        5.9123736648  W2        15723           0.0000000000
     45029     15010  TIP3      H1             -5.2069805720       39.8873175841        6.0365436648  W2        15723           0.0000000000
     45030     15010  TIP3      H2             -4.7275205720       41.2284275841        5.5232936648  W2        15723           0.0000000000
     45031     15011  TIP3      OH2            -4.8748605720       41.3760175841       11.3482636648  W2        15724           0.0000000000
     45032     15011  TIP3      H1             -3.9420605720       41.5880075841       11.3138636648  W2        15724           0.0000000000
     45033     15011  TIP3      H2             -5.1101105720       41.4772275841       12.2705636648  W2        15724           0.0000000000
     45034     15012  TIP3      OH2            -4.8456705720       42.1125475841       14.1242036648  W2        15725           0.0000000000
     45035     15012  TIP3      H1             -5.6885405720       42.3805875841       14.4901836648  W2        15725           0.0000000000
     45036     15012  TIP3      H2             -4.4032405720       42.9347375841       13.9133136648  W2        15725           0.0000000000
     45037     15013  TIP3      OH2           -20.5644505720       40.5604175841       17.6011236648  W2        15726           0.0000000000
     45038     15013  TIP3      H1            -19.6449605720       40.4382475841       17.8374336648  W2        15726           0.0000000000
     45039     15013  TIP3      H2            -21.0140005720       39.8103875841       17.9904736648  W2        15726           0.0000000000
     45040     15014  TIP3      OH2            -4.8732105720       38.0572075841        5.9605736648  W2        15728           0.0000000000
     45041     15014  TIP3      H1             -4.6907105720       37.6083575841        6.7860736648  W2        15728           0.0000000000
     45042     15014  TIP3      H2             -5.4729205720       37.4726475841        5.4970336648  W2        15728           0.0000000000
     45043     15015  TIP3      OH2           -19.3432005720       38.8725775841       10.4924136648  W2        15729           0.0000000000
     45044     15015  TIP3      H1            -18.8980405720       38.0808275841       10.7943836648  W2        15729           0.0000000000
     45045     15015  TIP3      H2            -18.8769005720       39.5890975841       10.9229736648  W2        15729           0.0000000000
     45046     15016  TIP3      OH2           -21.0391705720       41.8718775841       11.5614336648  W2        15730           0.0000000000
     45047     15016  TIP3      H1            -20.5471905720       41.6509275841       10.7706336648  W2        15730           0.0000000000
     45048     15016  TIP3      H2            -20.6770805720       42.7122175841       11.8423836648  W2        15730           0.0000000000
     45049     15017  TIP3      OH2            -3.0065905720       38.1250175841        2.4886036648  W2        15732           0.0000000000
     45050     15017  TIP3      H1             -2.5943305720       37.4035875841        2.0134036648  W2        15732           0.0000000000
     45051     15017  TIP3      H2             -2.3249405720       38.7944775841        2.5470336648  W2        15732           0.0000000000
     45052     15018  TIP3      OH2           -20.7255205720       38.1297875841        5.6156736648  W2        15733           0.0000000000
     45053     15018  TIP3      H1            -21.6506805720       38.3384475841        5.4862236648  W2        15733           0.0000000000
     45054     15018  TIP3      H2            -20.2715305720       38.6138675841        4.9259036648  W2        15733           0.0000000000
     45055     15019  TIP3      OH2            -5.9548005720       53.1139575841        7.5614136648  W2        15734           0.0000000000
     45056     15019  TIP3      H1             -5.3025105720       52.7661675841        6.9533236648  W2        15734           0.0000000000
     45057     15019  TIP3      H2             -5.4444205720       53.6022775841        8.2073836648  W2        15734           0.0000000000
     45058     15020  TIP3      OH2           -20.7619805720       36.8676875841       13.9599236648  W2        15735           0.0000000000
     45059     15020  TIP3      H1            -21.4269305720       36.6217175841       14.6030136648  W2        15735           0.0000000000
     45060     15020  TIP3      H2            -21.2048505720       37.4897275841       13.3827236648  W2        15735           0.0000000000
     45061     15021  TIP3      OH2           -15.6157605720       51.0172175841       14.3629036648  W2        15737           0.0000000000
     45062     15021  TIP3      H1            -16.0406505720       51.8270675841       14.0803636648  W2        15737           0.0000000000
     45063     15021  TIP3      H2            -14.7114805720       51.1026275841       14.0608836648  W2        15737           0.0000000000
     45064     15022  TIP3      OH2           -11.3046205720       52.4162175841       17.3222736648  W2        15738           0.0000000000
     45065     15022  TIP3      H1            -11.1198705720       52.0828275841       18.2003036648  W2        15738           0.0000000000
     45066     15022  TIP3      H2            -10.4581705720       52.7260775841       17.0001936648  W2        15738           0.0000000000
     45067     15023  TIP3      OH2            -8.9595805720       53.7021075841       16.5664136648  W2        15739           0.0000000000
     45068     15023  TIP3      H1             -8.2826905720       53.0693375841       16.3263336648  W2        15739           0.0000000000
     45069     15023  TIP3      H2             -8.6377005720       54.1031575841       17.3737436648  W2        15739           0.0000000000
     45070     15024  TIP3      OH2            -4.0422005720       36.2916575841       15.6459136648  W2        15740           0.0000000000
     45071     15024  TIP3      H1             -4.8548505720       36.6166875841       15.2583836648  W2        15740           0.0000000000
     45072     15024  TIP3      H2             -3.8093505720       35.5315075841       15.1128236648  W2        15740           0.0000000000
     45073     15025  TIP3      OH2           -18.2140905720       54.2736075841       14.4104336648  W2        15741           0.0000000000
     45074     15025  TIP3      H1            -18.9344505720       54.7137075841       13.9592036648  W2        15741           0.0000000000
     45075     15025  TIP3      H2            -18.5796905720       54.0230775841       15.2588336648  W2        15741           0.0000000000
     45076     15026  TIP3      OH2           -15.7468305720       53.8739975841       13.4401536648  W2        15742           0.0000000000
     45077     15026  TIP3      H1            -16.6116105720       53.9458475841       13.8441636648  W2        15742           0.0000000000
     45078     15026  TIP3      H2            -15.8019305720       54.4207275841       12.6564036648  W2        15742           0.0000000000
     45079     15027  TIP3      OH2           -11.0362705720       53.7618875841       12.6157536648  W2        15743           0.0000000000
     45080     15027  TIP3      H1            -11.4928705720       54.2908575841       11.9615936648  W2        15743           0.0000000000
     45081     15027  TIP3      H2            -10.8734705720       54.3650275841       13.3409836648  W2        15743           0.0000000000
     45082     15028  TIP3      OH2            -8.7086405720       52.6398475841       13.5607836648  W2        15744           0.0000000000
     45083     15028  TIP3      H1             -9.6132705720       52.8048675841       13.2949936648  W2        15744           0.0000000000
     45084     15028  TIP3      H2             -8.2797805720       53.4930675841       13.4951236648  W2        15744           0.0000000000
     45085     15029  TIP3      OH2            -6.1044505720       54.2097575841       13.8555636648  W2        15745           0.0000000000
     45086     15029  TIP3      H1             -6.2862505720       55.1256475841       13.6450536648  W2        15745           0.0000000000
     45087     15029  TIP3      H2             -5.9276705720       53.7994675841       13.0090236648  W2        15745           0.0000000000
     45088     15030  TIP3      OH2           -18.7992805720       52.8968575841       11.3206136648  W2        15746           0.0000000000
     45089     15030  TIP3      H1            -18.8176805720       52.4713675841       12.1778436648  W2        15746           0.0000000000
     45090     15030  TIP3      H2            -17.9944905720       52.5783575841       10.9118336648  W2        15746           0.0000000000
     45091     15031  TIP3      OH2           -16.6579705720       51.6067275841        9.9756036648  W2        15747           0.0000000000
     45092     15031  TIP3      H1            -16.8769005720       50.6904675841       10.1452036648  W2        15747           0.0000000000
     45093     15031  TIP3      H2            -15.8337505720       51.7467675841       10.4417436648  W2        15747           0.0000000000
     45094     15032  TIP3      OH2           -14.1207205720       52.0766575841       10.8244036648  W2        15748           0.0000000000
     45095     15032  TIP3      H1            -13.9081505720       51.1885575841       10.5374936648  W2        15748           0.0000000000
     45096     15032  TIP3      H2            -14.0562105720       52.0424275841       11.7788036648  W2        15748           0.0000000000
     45097     15033  TIP3      OH2           -10.6123505720       37.7407175841        9.9687336648  W2        15749           0.0000000000
     45098     15033  TIP3      H1            -11.2866705720       37.1112775841       10.2243136648  W2        15749           0.0000000000
     45099     15033  TIP3      H2            -10.0484305720       37.2566075841        9.3655236648  W2        15749           0.0000000000
     45100     15034  TIP3      OH2            -5.4696305720       35.8481175841       10.0814436648  W2        15750           0.0000000000
     45101     15034  TIP3      H1             -4.8658705720       36.3956575841        9.5795436648  W2        15750           0.0000000000
     45102     15034  TIP3      H2             -6.3394305720       36.1671575841        9.8408536648  W2        15750           0.0000000000
     45103     15035  TIP3      OH2            -3.7425905720       36.9869875841        8.4145336648  W2        15751           0.0000000000
     45104     15035  TIP3      H1             -3.1308405720       36.4725575841        7.8878936648  W2        15751           0.0000000000
     45105     15035  TIP3      H2             -3.3602505720       37.8641975841        8.4379736648  W2        15751           0.0000000000
     45106     15036  TIP3      OH2           -18.2856005720       36.3747475841        7.7907236648  W2        15752           0.0000000000
     45107     15036  TIP3      H1            -19.0626205720       36.1402375841        7.2833136648  W2        15752           0.0000000000
     45108     15036  TIP3      H2            -17.7552405720       35.5779575841        7.7995236648  W2        15752           0.0000000000
     45109     15037  TIP3      OH2           -19.4492605720       36.1725575841        3.5943336648  W2        15753           0.0000000000
     45110     15037  TIP3      H1            -19.0101905720       36.7836075841        3.0026836648  W2        15753           0.0000000000
     45111     15037  TIP3      H2            -20.0830205720       36.7109675841        4.0683336648  W2        15753           0.0000000000
     45112     15038  TIP3      OH2           -13.7063405720       36.3014575841        7.6040336648  W2        15754           0.0000000000
     45113     15038  TIP3      H1            -12.8320005720       36.6898875841        7.5744636648  W2        15754           0.0000000000
     45114     15038  TIP3      H2            -13.8422605720       36.0862375841        8.5267536648  W2        15754           0.0000000000
     45115     15039  TIP3      OH2            -8.1495005720       36.3314375841        9.2532036648  W2        15755           0.0000000000
     45116     15039  TIP3      H1             -8.0733405720       36.4265975841        8.3038036648  W2        15755           0.0000000000
     45117     15039  TIP3      H2             -8.4245805720       35.4237275841        9.3821136648  W2        15755           0.0000000000
     45118     15040  TIP3      OH2            -6.7962405720       36.3572175841        4.9457036648  W2        15756           0.0000000000
     45119     15040  TIP3      H1             -7.4991305720       36.9721375841        4.7358436648  W2        15756           0.0000000000
     45120     15040  TIP3      H2             -7.2411005720       35.5198875841        5.0767936648  W2        15756           0.0000000000
     45121     15041  TIP3      OH2           -19.5483105720       52.1207775841        4.4918436648  W2        15757           0.0000000000
     45122     15041  TIP3      H1            -20.2333205720       52.0826675841        3.8243536648  W2        15757           0.0000000000
     45123     15041  TIP3      H2            -19.5445905720       53.0335375841        4.7800536648  W2        15757           0.0000000000
     45124     15042  TIP3      OH2           -17.5883505720       38.0887075841        2.0367436648  W2        15758           0.0000000000
     45125     15042  TIP3      H1            -17.0970105720       37.4589475841        1.5092936648  W2        15758           0.0000000000
     45126     15042  TIP3      H2            -16.9647205720       38.3846475841        2.6998636648  W2        15758           0.0000000000
     45127     15043  TIP3      OH2           -12.5623405720       38.3818575841        4.4937936648  W2        15759           0.0000000000
     45128     15043  TIP3      H1            -12.3842105720       37.7351775841        5.1766536648  W2        15759           0.0000000000
     45129     15043  TIP3      H2            -12.6157205720       39.2156275841        4.9609036648  W2        15759           0.0000000000
     45130     15044  TIP3      OH2           -10.6839605720       53.3302675841        2.8894636648  W2        15760           0.0000000000
     45131     15044  TIP3      H1             -9.8179405720       53.6970075841        2.7112836648  W2        15760           0.0000000000
     45132     15044  TIP3      H2            -10.9306805720       52.8910675841        2.0755436648  W2        15760           0.0000000000
     45133     15045  TIP3      OH2            -3.9750005720       52.8932975841        5.5685736648  W2        15761           0.0000000000
     45134     15045  TIP3      H1             -4.1692905720       52.1455075841        5.0035336648  W2        15761           0.0000000000
     45135     15045  TIP3      H2             -4.0139905720       53.6513075841        4.9853636648  W2        15761           0.0000000000
     45136     15046  TIP3      OH2           -18.3278005720       36.8889375841       17.3083436648  W2        15762           0.0000000000
     45137     15046  TIP3      H1            -18.6939805720       36.1231975841       17.7508136648  W2        15762           0.0000000000
     45138     15046  TIP3      H2            -17.4149505720       36.9179575841       17.5948536648  W2        15762           0.0000000000
     45139     15047  TIP3      OH2           -17.7301905720       53.0408575841        1.5170536648  W2        15764           0.0000000000
     45140     15047  TIP3      H1            -17.9977305720       53.3271475841        2.3903636648  W2        15764           0.0000000000
     45141     15047  TIP3      H2            -16.9589305720       52.4947775841        1.6693036648  W2        15764           0.0000000000
     45142     15048  TIP3      OH2            -4.7573805720       51.6445375841       17.7187536648  W2        15766           0.0000000000
     45143     15048  TIP3      H1             -5.5391905720       51.4583375841       17.1988136648  W2        15766           0.0000000000
     45144     15048  TIP3      H2             -4.8293905720       52.5739675841       17.9360036648  W2        15766           0.0000000000
     45145     15049  TIP3      OH2             9.6486594280       45.5309775841        7.7494736648  W2        15767           0.0000000000
     45146     15049  TIP3      H1              9.7377694280       46.4747975841        7.6171836648  W2        15767           0.0000000000
     45147     15049  TIP3      H2              9.0104194280       45.2556175841        7.0914136648  W2        15767           0.0000000000
     45148     15050  TIP3      OH2             8.5817894280       44.7860475841       11.1682936648  W2        15768           0.0000000000
     45149     15050  TIP3      H1              8.5435394280       44.1396775841       11.8732536648  W2        15768           0.0000000000
     45150     15050  TIP3      H2              8.2594394280       44.3194875841       10.3971636648  W2        15768           0.0000000000
     45151     15051  TIP3      OH2             0.9502894280       44.4002575841       12.7612836648  W2        15769           0.0000000000
     45152     15051  TIP3      H1              0.9914994280       43.7745875841       13.4845236648  W2        15769           0.0000000000
     45153     15051  TIP3      H2              1.6530594280       45.0241175841       12.9433236648  W2        15769           0.0000000000
     45154     15052  TIP3      OH2            12.2878094280       47.7250875841        9.4698036648  W2        15770           0.0000000000
     45155     15052  TIP3      H1             11.8470794280       47.0046875841        9.9203636648  W2        15770           0.0000000000
     45156     15052  TIP3      H2             12.2747794280       48.4458075841       10.0995736648  W2        15770           0.0000000000
     45157     15053  TIP3      OH2             1.8735994280       48.8501475841       11.2961936648  W2        15771           0.0000000000
     45158     15053  TIP3      H1              1.5041194280       48.0481975841       10.9266236648  W2        15771           0.0000000000
     45159     15053  TIP3      H2              2.8147094280       48.6816375841       11.3425336648  W2        15771           0.0000000000
     45160     15054  TIP3      OH2            -1.5163505720       42.5104075841        6.6890736648  W2        15772           0.0000000000
     45161     15054  TIP3      H1             -1.9640105720       43.3562775841        6.6707236648  W2        15772           0.0000000000
     45162     15054  TIP3      H2             -2.0772305720       41.9308275841        6.1735836648  W2        15772           0.0000000000
     45163     15055  TIP3      OH2            -0.8057405720       44.6723675841        8.8148736648  W2        15773           0.0000000000
     45164     15055  TIP3      H1             -0.5923905720       43.9025275841        9.3421736648  W2        15773           0.0000000000
     45165     15055  TIP3      H2             -0.0679805720       44.7620375841        8.2116336648  W2        15773           0.0000000000
     45166     15056  TIP3      OH2             9.3993594280       52.8292575841        9.6818436648  W2        15774           0.0000000000
     45167     15056  TIP3      H1             10.0189994280       52.1527275841        9.4087636648  W2        15774           0.0000000000
     45168     15056  TIP3      H2              9.1910994280       52.6113375841       10.5903336648  W2        15774           0.0000000000
     45169     15057  TIP3      OH2             6.9712294280       47.2181875841       11.5743936648  W2        15775           0.0000000000
     45170     15057  TIP3      H1              7.2750194280       46.5323275841       10.9798036648  W2        15775           0.0000000000
     45171     15057  TIP3      H2              7.6926294280       47.3370575841       12.1921936648  W2        15775           0.0000000000
     45172     15058  TIP3      OH2            15.6342094280       38.8197175841       12.4350136648  W2        15776           0.0000000000
     45173     15058  TIP3      H1             15.6834294280       39.4298375841       13.1709236648  W2        15776           0.0000000000
     45174     15058  TIP3      H2             16.0597194280       39.2808075841       11.7121236648  W2        15776           0.0000000000
     45175     15059  TIP3      OH2            10.1119294280       41.6124275841       11.9018736648  W2        15777           0.0000000000
     45176     15059  TIP3      H1             10.2545194280       40.6661275841       11.9220336648  W2        15777           0.0000000000
     45177     15059  TIP3      H2             10.0058294280       41.8194075841       10.9733636648  W2        15777           0.0000000000
     45178     15060  TIP3      OH2             3.2667594280       39.7140675841        9.1743536648  W2        15778           0.0000000000
     45179     15060  TIP3      H1              3.3098694280       40.5739175841        8.7559836648  W2        15778           0.0000000000
     45180     15060  TIP3      H2              2.8091694280       39.1615375841        8.5406736648  W2        15778           0.0000000000
     45181     15061  TIP3      OH2            10.9890294280       39.8446275841        7.5751836648  W2        15779           0.0000000000
     45182     15061  TIP3      H1             11.6354594280       39.5159475841        8.1999436648  W2        15779           0.0000000000
     45183     15061  TIP3      H2             11.4989694280       40.3625275841        6.9523236648  W2        15779           0.0000000000
     45184     15062  TIP3      OH2            -0.1130905720       42.1106475841        9.9364936648  W2        15780           0.0000000000
     45185     15062  TIP3      H1              0.5405694280       41.5608175841       10.3685036648  W2        15780           0.0000000000
     45186     15062  TIP3      H2             -0.0891605720       41.8365475841        9.0196936648  W2        15780           0.0000000000
     45187     15063  TIP3      OH2             5.0433594280       43.6607775841        9.1516436648  W2        15781           0.0000000000
     45188     15063  TIP3      H1              5.6594594280       43.1343175841        9.6610436648  W2        15781           0.0000000000
     45189     15063  TIP3      H2              4.4572394280       43.0206475841        8.7480036648  W2        15781           0.0000000000
     45190     15064  TIP3      OH2            16.0256694280       40.2976375841       14.6709936648  W2        15782           0.0000000000
     45191     15064  TIP3      H1             15.3371294280       40.9557075841       14.5756536648  W2        15782           0.0000000000
     45192     15064  TIP3      H2             16.0411294280       40.1004275841       15.6075336648  W2        15782           0.0000000000
     45193     15065  TIP3      OH2             2.0769494280       38.6319075841       13.2484336648  W2        15783           0.0000000000
     45194     15065  TIP3      H1              1.8581194280       39.1619675841       12.4820336648  W2        15783           0.0000000000
     45195     15065  TIP3      H2              1.4090394280       38.8584575841       13.8955736648  W2        15783           0.0000000000
     45196     15066  TIP3      OH2             9.4459294280       48.1320175841        6.7923436648  W2        15784           0.0000000000
     45197     15066  TIP3      H1              9.1504394280       47.8092475841        5.9410336648  W2        15784           0.0000000000
     45198     15066  TIP3      H2              9.1217094280       49.0316875841        6.8336036648  W2        15784           0.0000000000
     45199     15067  TIP3      OH2             4.6460894280       46.3074775841       13.5358036648  W2        15785           0.0000000000
     45200     15067  TIP3      H1              3.9059994280       46.9056275841       13.6393236648  W2        15785           0.0000000000
     45201     15067  TIP3      H2              5.3600394280       46.8614375841       13.2201636648  W2        15785           0.0000000000
     45202     15068  TIP3      OH2            12.7528694280       39.1355575841        9.5557736648  W2        15786           0.0000000000
     45203     15068  TIP3      H1             12.5376694280       38.3698975841       10.0883736648  W2        15786           0.0000000000
     45204     15068  TIP3      H2             13.4086094280       39.6080175841       10.0686236648  W2        15786           0.0000000000
     45205     15069  TIP3      OH2             1.6706794280       40.5240875841       11.2006536648  W2        15787           0.0000000000
     45206     15069  TIP3      H1              2.2843094280       41.1568475841       11.5738936648  W2        15787           0.0000000000
     45207     15069  TIP3      H2              2.1827494280       40.0515875841       10.5443436648  W2        15787           0.0000000000
     45208     15070  TIP3      OH2             3.0535194280       48.2717775841       14.3229536648  W2        15788           0.0000000000
     45209     15070  TIP3      H1              3.0482794280       49.1511275841       13.9448836648  W2        15788           0.0000000000
     45210     15070  TIP3      H2              2.1999294280       48.1881875841       14.7479436648  W2        15788           0.0000000000
     45211     15071  TIP3      OH2            -0.8253905720       47.9425675841        5.1048836648  W2        15789           0.0000000000
     45212     15071  TIP3      H1             -1.0973005720       48.1716675841        4.2161736648  W2        15789           0.0000000000
     45213     15071  TIP3      H2             -0.7798205720       48.7804475841        5.5654136648  W2        15789           0.0000000000
     45214     15072  TIP3      OH2            12.7995794280       49.5641575841       11.8177336648  W2        15790           0.0000000000
     45215     15072  TIP3      H1             11.8579494280       49.6225475841       11.9794236648  W2        15790           0.0000000000
     45216     15072  TIP3      H2             13.0761894280       50.4702075841       11.6807036648  W2        15790           0.0000000000
     45217     15073  TIP3      OH2            13.1002794280       37.8506875841       13.2351236648  W2        15791           0.0000000000
     45218     15073  TIP3      H1             12.3641994280       38.4613975841       13.1972536648  W2        15791           0.0000000000
     45219     15073  TIP3      H2             13.7836794280       38.2655875841       12.7087636648  W2        15791           0.0000000000
     45220     15074  TIP3      OH2             6.1034194280       35.9374175841       10.7009236648  W2        15792           0.0000000000
     45221     15074  TIP3      H1              5.9858394280       34.9890175841       10.6467536648  W2        15792           0.0000000000
     45222     15074  TIP3      H2              5.2484294280       36.2700275841       10.9740336648  W2        15792           0.0000000000
     45223     15075  TIP3      OH2            11.0516994280       51.3455075841        8.4428936648  W2        15793           0.0000000000
     45224     15075  TIP3      H1             11.4769294280       50.6382975841        7.9578536648  W2        15793           0.0000000000
     45225     15075  TIP3      H2             11.3686994280       52.1467775841        8.0261136648  W2        15793           0.0000000000
     45226     15076  TIP3      OH2            12.2113494280       49.2463575841        6.9515536648  W2        15794           0.0000000000
     45227     15076  TIP3      H1             11.9538294280       48.5563675841        6.3401436648  W2        15794           0.0000000000
     45228     15076  TIP3      H2             12.2824294280       48.8034775841        7.7971436648  W2        15794           0.0000000000
     45229     15077  TIP3      OH2            13.8973694280       47.8130275841       15.4289036648  W2        15795           0.0000000000
     45230     15077  TIP3      H1             14.0369994280       47.2212775841       14.6896036648  W2        15795           0.0000000000
     45231     15077  TIP3      H2             14.0646494280       48.6856175841       15.0727836648  W2        15795           0.0000000000
     45232     15078  TIP3      OH2             8.3699094280       44.7749775841        5.2015036648  W2        15796           0.0000000000
     45233     15078  TIP3      H1              7.6584594280       45.3099475841        4.8495536648  W2        15796           0.0000000000
     45234     15078  TIP3      H2              9.0608694280       44.8301875841        4.5413936648  W2        15796           0.0000000000
     45235     15079  TIP3      OH2             8.4238294280       43.2324075841        2.2400036648  W2        15797           0.0000000000
     45236     15079  TIP3      H1              9.1248194280       43.2550975841        2.8914036648  W2        15797           0.0000000000
     45237     15079  TIP3      H2              8.7261194280       42.6043775841        1.5839336648  W2        15797           0.0000000000
     45238     15080  TIP3      OH2            15.7392994280       44.1528275841       13.4949436648  W2        15798           0.0000000000
     45239     15080  TIP3      H1             15.0867094280       44.8473875841       13.5840336648  W2        15798           0.0000000000
     45240     15080  TIP3      H2             16.2043294280       44.3629175841       12.6851036648  W2        15798           0.0000000000
     45241     15081  TIP3      OH2            11.7756794280       44.9843075841        6.1530936648  W2        15799           0.0000000000
     45242     15081  TIP3      H1             11.0437794280       45.2126775841        6.7261536648  W2        15799           0.0000000000
     45243     15081  TIP3      H2             12.2228994280       44.2705775841        6.6078436648  W2        15799           0.0000000000
     45244     15082  TIP3      OH2            11.6730294280       43.1585675841       15.2207936648  W2        15800           0.0000000000
     45245     15082  TIP3      H1             11.7529394280       43.9220075841       15.7926436648  W2        15800           0.0000000000
     45246     15082  TIP3      H2             11.0717994280       43.4378075841       14.5303036648  W2        15800           0.0000000000
     45247     15083  TIP3      OH2             3.4210494280       45.6149275841        8.0355936648  W2        15801           0.0000000000
     45248     15083  TIP3      H1              3.0905694280       45.2442675841        7.2172936648  W2        15801           0.0000000000
     45249     15083  TIP3      H2              4.0094594280       44.9443275841        8.3824236648  W2        15801           0.0000000000
     45250     15084  TIP3      OH2             4.7877994280       49.0429875841       10.7168136648  W2        15802           0.0000000000
     45251     15084  TIP3      H1              4.6929294280       48.4642975841        9.9602736648  W2        15802           0.0000000000
     45252     15084  TIP3      H2              5.5171594280       48.6715575841       11.2130936648  W2        15802           0.0000000000
     45253     15085  TIP3      OH2             3.7875994280       44.3834875841       11.6690936648  W2        15803           0.0000000000
     45254     15085  TIP3      H1              4.3528494280       44.5049075841       10.9062136648  W2        15803           0.0000000000
     45255     15085  TIP3      H2              4.1064894280       45.0209875841       12.3079436648  W2        15803           0.0000000000
     45256     15086  TIP3      OH2            10.0968194280       49.8866775841       12.4031436648  W2        15804           0.0000000000
     45257     15086  TIP3      H1              9.8564794280       50.5489875841       13.0510636648  W2        15804           0.0000000000
     45258     15086  TIP3      H2              9.8986394280       49.0521975841       12.8281036648  W2        15804           0.0000000000
     45259     15087  TIP3      OH2             4.6676694280       48.7827575841       16.3862836648  W2        15805           0.0000000000
     45260     15087  TIP3      H1              4.3564194280       49.5650775841       16.8416036648  W2        15805           0.0000000000
     45261     15087  TIP3      H2              4.0176894280       48.6296675841       15.7004836648  W2        15805           0.0000000000
     45262     15088  TIP3      OH2            10.6466294280       44.1465975841        3.8382136648  W2        15806           0.0000000000
     45263     15088  TIP3      H1             11.2261794280       44.2966275841        4.5851036648  W2        15806           0.0000000000
     45264     15088  TIP3      H2             11.0606294280       44.6173375841        3.1148536648  W2        15806           0.0000000000
     45265     15089  TIP3      OH2             1.5876594280       44.9808675841       15.6148536648  W2        15807           0.0000000000
     45266     15089  TIP3      H1              1.6579794280       45.6315475841       16.3133536648  W2        15807           0.0000000000
     45267     15089  TIP3      H2              0.6968794280       45.0836175841       15.2799436648  W2        15807           0.0000000000
     45268     15090  TIP3      OH2             8.3731194280       50.8834475841        7.2735236648  W2        15808           0.0000000000
     45269     15090  TIP3      H1              8.8468794280       51.1790775841        8.0509436648  W2        15808           0.0000000000
     45270     15090  TIP3      H2              7.8100494280       51.6216075841        7.0404836648  W2        15808           0.0000000000
     45271     15091  TIP3      OH2             2.9072594280       50.8542575841       17.1496636648  W2        15809           0.0000000000
     45272     15091  TIP3      H1              2.9147894280       50.7182275841       16.2022136648  W2        15809           0.0000000000
     45273     15091  TIP3      H2              1.9912994280       50.7370675841       17.4016636648  W2        15809           0.0000000000
     45274     15092  TIP3      OH2            14.3454694280       35.8966375841        3.6511836648  W2        15810           0.0000000000
     45275     15092  TIP3      H1             13.4455394280       36.0355375841        3.9462436648  W2        15810           0.0000000000
     45276     15092  TIP3      H2             14.5973094280       36.7280975841        3.2493536648  W2        15810           0.0000000000
     45277     15093  TIP3      OH2             2.4113194280       44.6843575841        5.6248736648  W2        15811           0.0000000000
     45278     15093  TIP3      H1              2.1194494280       45.4525275841        5.1340036648  W2        15811           0.0000000000
     45279     15093  TIP3      H2              1.7368394280       44.0249775841        5.4620136648  W2        15811           0.0000000000
     45280     15094  TIP3      OH2            15.5346094280       50.2628775841        2.0275736648  W2        15812           0.0000000000
     45281     15094  TIP3      H1             15.6079594280       51.2018975841        2.1981036648  W2        15812           0.0000000000
     45282     15094  TIP3      H2             16.4401194280       49.9577375841        1.9713036648  W2        15812           0.0000000000
     45283     15095  TIP3      OH2            -1.4956705720       47.0472775841       14.4398536648  W2        15813           0.0000000000
     45284     15095  TIP3      H1             -1.9968305720       47.0192175841       13.6248236648  W2        15813           0.0000000000
     45285     15095  TIP3      H2             -1.4903005720       46.1415975841       14.7495836648  W2        15813           0.0000000000
     45286     15096  TIP3      OH2            -1.7454005720       49.8276575841       11.3238736648  W2        15814           0.0000000000
     45287     15096  TIP3      H1             -0.7993405720       49.6833575841       11.3048236648  W2        15814           0.0000000000
     45288     15096  TIP3      H2             -1.8577705720       50.6119375841       11.8609936648  W2        15814           0.0000000000
     45289     15097  TIP3      OH2            16.4524494280       50.4936275841       17.0062436648  W2        15815           0.0000000000
     45290     15097  TIP3      H1             16.4031294280       49.5384375841       16.9690036648  W2        15815           0.0000000000
     45291     15097  TIP3      H2             15.6256794280       50.7611575841       17.4076236648  W2        15815           0.0000000000
     45292     15098  TIP3      OH2             7.4308494280       50.0675475841       15.8823836648  W2        15816           0.0000000000
     45293     15098  TIP3      H1              7.5183094280       50.8940075841       16.3572936648  W2        15816           0.0000000000
     45294     15098  TIP3      H2              6.5673594280       49.7379275841       16.1313136648  W2        15816           0.0000000000
     45295     15099  TIP3      OH2             7.8454294280       53.8399175841        5.6884436648  W2        15817           0.0000000000
     45296     15099  TIP3      H1              7.7700294280       53.7186375841        4.7419636648  W2        15817           0.0000000000
     45297     15099  TIP3      H2              7.8782994280       54.7891875841        5.8069036648  W2        15817           0.0000000000
     45298     15100  TIP3      OH2             1.4988094280       52.6286175841        7.4693436648  W2        15818           0.0000000000
     45299     15100  TIP3      H1              1.6508494280       52.2806575841        8.3479936648  W2        15818           0.0000000000
     45300     15100  TIP3      H2              0.6478494280       52.2723475841        7.2140636648  W2        15818           0.0000000000
     45301     15101  TIP3      OH2            10.9470294280       52.9939375841        2.6906836648  W2        15819           0.0000000000
     45302     15101  TIP3      H1             11.3218694280       52.2495475841        2.2199436648  W2        15819           0.0000000000
     45303     15101  TIP3      H2             10.9513994280       52.7239975841        3.6090136648  W2        15819           0.0000000000
     45304     15102  TIP3      OH2            10.6158394280       52.9196475841        5.4399036648  W2        15820           0.0000000000
     45305     15102  TIP3      H1              9.6808194280       53.0198375841        5.6186036648  W2        15820           0.0000000000
     45306     15102  TIP3      H2             10.8960294280       52.2102475841        6.0182236648  W2        15820           0.0000000000
     45307     15103  TIP3      OH2            13.6044294280       41.9868775841       17.4864636648  W2        15821           0.0000000000
     45308     15103  TIP3      H1             13.1971094280       42.4674375841       16.7657936648  W2        15821           0.0000000000
     45309     15103  TIP3      H2             13.6449994280       41.0814775841       17.1785436648  W2        15821           0.0000000000
     45310     15104  TIP3      OH2             0.7533794280       48.3708175841       15.4831336648  W2        15822           0.0000000000
     45311     15104  TIP3      H1              0.9695094280       48.0093775841       16.3427136648  W2        15822           0.0000000000
     45312     15104  TIP3      H2             -0.1021505720       47.9961975841       15.2734836648  W2        15822           0.0000000000
     45313     15105  TIP3      OH2             3.3721794280       36.8408675841       11.4785536648  W2        15823           0.0000000000
     45314     15105  TIP3      H1              2.5105494280       36.7536875841       11.0708436648  W2        15823           0.0000000000
     45315     15105  TIP3      H2              3.3497494280       37.6968775841       11.9063136648  W2        15823           0.0000000000
     45316     15106  TIP3      OH2             8.0349594280       36.5629075841       14.8532536648  W2        15824           0.0000000000
     45317     15106  TIP3      H1              8.4552694280       36.1476175841       15.6063136648  W2        15824           0.0000000000
     45318     15106  TIP3      H2              7.1019194280       36.3842375841       14.9704536648  W2        15824           0.0000000000
     45319     15107  TIP3      OH2            11.3614494280       40.3184275841       15.7067036648  W2        15825           0.0000000000
     45320     15107  TIP3      H1             10.8473994280       40.1926475841       16.5043036648  W2        15825           0.0000000000
     45321     15107  TIP3      H2             11.2059194280       41.2307375841       15.4623236648  W2        15825           0.0000000000
     45322     15108  TIP3      OH2            12.1239394280       45.1794275841        1.4680036648  W2        15826           0.0000000000
     45323     15108  TIP3      H1             12.1660194280       44.9568175841        0.5380036648  W2        15826           0.0000000000
     45324     15108  TIP3      H2             12.9731494280       45.5781375841        1.6579936648  W2        15826           0.0000000000
     45325     15109  TIP3      OH2             7.6966894280       39.0552475841        2.1383336648  W2        15827           0.0000000000
     45326     15109  TIP3      H1              7.4431694280       39.0744075841        3.0611436648  W2        15827           0.0000000000
     45327     15109  TIP3      H2              7.4398994280       38.1837875841        1.8369536648  W2        15827           0.0000000000
     45328     15110  TIP3      OH2             3.4631894280       41.8063175841       12.5735736648  W2        15828           0.0000000000
     45329     15110  TIP3      H1              2.8213994280       41.7660475841       13.2825836648  W2        15828           0.0000000000
     45330     15110  TIP3      H2              3.5003894280       42.7327875841       12.3358736648  W2        15828           0.0000000000
     45331     15111  TIP3      OH2             3.4600994280       42.0273275841        7.4855736648  W2        15829           0.0000000000
     45332     15111  TIP3      H1              2.5673894280       41.6869375841        7.4269536648  W2        15829           0.0000000000
     45333     15111  TIP3      H2              3.9107594280       41.6504175841        6.7298936648  W2        15829           0.0000000000
     45334     15112  TIP3      OH2             8.9956494280       42.4433575841        6.3026536648  W2        15830           0.0000000000
     45335     15112  TIP3      H1              8.5866794280       43.2582175841        6.0111336648  W2        15830           0.0000000000
     45336     15112  TIP3      H2              9.7162694280       42.3033675841        5.6883636648  W2        15830           0.0000000000
     45337     15113  TIP3      OH2             8.0978094280       42.6189975841       17.7907236648  W2        15831           0.0000000000
     45338     15113  TIP3      H1              7.5351894280       41.9141575841       18.1115036648  W2        15831           0.0000000000
     45339     15113  TIP3      H2              8.9241494280       42.4981875841       18.2584836648  W2        15831           0.0000000000
     45340     15114  TIP3      OH2            10.0004194280       41.8893975841        9.1166236648  W2        15832           0.0000000000
     45341     15114  TIP3      H1              9.8048694280       42.4950775841        8.4016836648  W2        15832           0.0000000000
     45342     15114  TIP3      H2             10.1816794280       41.0559175841        8.6822536648  W2        15832           0.0000000000
     45343     15115  TIP3      OH2             1.2132394280       42.1266675841       14.4407736648  W2        15833           0.0000000000
     45344     15115  TIP3      H1              1.1751794280       42.5268275841       15.3094836648  W2        15833           0.0000000000
     45345     15115  TIP3      H2              0.7223494280       41.3099075841       14.5310636648  W2        15833           0.0000000000
     45346     15116  TIP3      OH2             4.5789794280       39.5008975841        1.2393736648  W2        15834           0.0000000000
     45347     15116  TIP3      H1              4.1480494280       39.0559075841        1.9691136648  W2        15834           0.0000000000
     45348     15116  TIP3      H2              3.8608494280       39.8725275841        0.7271236648  W2        15834           0.0000000000
     45349     15117  TIP3      OH2            -2.1786805720       39.2428475841        8.2912436648  W2        15835           0.0000000000
     45350     15117  TIP3      H1             -1.5479105720       39.2140575841        9.0106336648  W2        15835           0.0000000000
     45351     15117  TIP3      H2             -1.7292505720       38.8177175841        7.5608336648  W2        15835           0.0000000000
     45352     15118  TIP3      OH2            -0.9044705720       39.9890475841        3.7152836648  W2        15836           0.0000000000
     45353     15118  TIP3      H1             -0.4303005720       40.5800375841        3.1303736648  W2        15836           0.0000000000
     45354     15118  TIP3      H2             -1.6218305720       40.5193375841        4.0622936648  W2        15836           0.0000000000
     45355     15119  TIP3      OH2             9.2643394280       43.5275275841       13.7878636648  W2        15837           0.0000000000
     45356     15119  TIP3      H1              9.5878194280       42.8964975841       13.1449136648  W2        15837           0.0000000000
     45357     15119  TIP3      H2              8.8242694280       42.9927475841       14.4486036648  W2        15837           0.0000000000
     45358     15120  TIP3      OH2             6.0416294280       39.4550775841        8.5719836648  W2        15838           0.0000000000
     45359     15120  TIP3      H1              5.1307394280       39.5117575841        8.8605836648  W2        15838           0.0000000000
     45360     15120  TIP3      H2              6.5469194280       39.3946275841        9.3827036648  W2        15838           0.0000000000
     45361     15121  TIP3      OH2             0.8699694280       41.0837075841        7.3987436648  W2        15839           0.0000000000
     45362     15121  TIP3      H1             -0.0192305720       41.1832575841        7.0587036648  W2        15839           0.0000000000
     45363     15121  TIP3      H2              1.1664594280       40.2420075841        7.0525336648  W2        15839           0.0000000000
     45364     15122  TIP3      OH2             4.5231494280       41.0839675841        5.0552036648  W2        15840           0.0000000000
     45365     15122  TIP3      H1              5.4546994280       41.2129675841        5.2335136648  W2        15840           0.0000000000
     45366     15122  TIP3      H2              4.3081794280       41.7533975841        4.4056736648  W2        15840           0.0000000000
     45367     15123  TIP3      OH2            10.4468194280       38.6897075841       11.8361636648  W2        15841           0.0000000000
     45368     15123  TIP3      H1              9.7699794280       38.8210175841       12.5001336648  W2        15841           0.0000000000
     45369     15123  TIP3      H2              9.9613094280       38.5346575841       11.0259336648  W2        15841           0.0000000000
     45370     15124  TIP3      OH2             3.1971694280       42.2781875841        2.6218136648  W2        15842           0.0000000000
     45371     15124  TIP3      H1              2.6546794280       41.8985675841        1.9305736648  W2        15842           0.0000000000
     45372     15124  TIP3      H2              4.0306594280       42.4726575841        2.1932236648  W2        15842           0.0000000000
     45373     15125  TIP3      OH2             1.3323094280       46.8353775841       17.7209736648  W2        15844           0.0000000000
     45374     15125  TIP3      H1              2.0645494280       47.0899675841       18.2824236648  W2        15844           0.0000000000
     45375     15125  TIP3      H2              0.5521794280       47.0399175841       18.2365136648  W2        15844           0.0000000000
     45376     15126  TIP3      OH2             7.3615994280       42.2423775841       10.4589436648  W2        15845           0.0000000000
     45377     15126  TIP3      H1              7.9259394280       41.6960375841        9.9119036648  W2        15845           0.0000000000
     45378     15126  TIP3      H2              7.2139394280       41.7205675841       11.2477036648  W2        15845           0.0000000000
     45379     15127  TIP3      OH2             2.3635694280       38.3789875841        6.8774236648  W2        15846           0.0000000000
     45380     15127  TIP3      H1              2.0465194280       37.4765175841        6.8419636648  W2        15846           0.0000000000
     45381     15127  TIP3      H2              3.1449794280       38.3807275841        6.3245836648  W2        15846           0.0000000000
     45382     15128  TIP3      OH2             5.9881894280       40.6309875841       12.8729836648  W2        15847           0.0000000000
     45383     15128  TIP3      H1              5.1527194280       41.0849375841       12.9832236648  W2        15847           0.0000000000
     45384     15128  TIP3      H2              6.5122494280       40.9068375841       13.6249736648  W2        15847           0.0000000000
     45385     15129  TIP3      OH2             6.5324494280       46.8437575841        4.5576236648  W2        15848           0.0000000000
     45386     15129  TIP3      H1              5.7875494280       46.3362875841        4.2354136648  W2        15848           0.0000000000
     45387     15129  TIP3      H2              6.3981694280       46.8925575841        5.5041036648  W2        15848           0.0000000000
     45388     15130  TIP3      OH2            13.6823394280       45.9765775841       13.3443836648  W2        15849           0.0000000000
     45389     15130  TIP3      H1             14.3242194280       46.4332075841       12.8006036648  W2        15849           0.0000000000
     45390     15130  TIP3      H2             12.8520294280       46.0898175841       12.8817936648  W2        15849           0.0000000000
     45391     15131  TIP3      OH2            10.4301294280       39.6577475841        2.7568836648  W2        15850           0.0000000000
     45392     15131  TIP3      H1              9.4915494280       39.7693075841        2.6057636648  W2        15850           0.0000000000
     45393     15131  TIP3      H2             10.7273394280       40.5144375841        3.0634536648  W2        15850           0.0000000000
     45394     15132  TIP3      OH2             8.0516594280       47.0280875841       15.7945336648  W2        15851           0.0000000000
     45395     15132  TIP3      H1              7.7062694280       46.6463275841       16.6014936648  W2        15851           0.0000000000
     45396     15132  TIP3      H2              7.8516694280       47.9614475841       15.8658236648  W2        15851           0.0000000000
     45397     15133  TIP3      OH2            11.1484794280       41.5250175841        4.4176236648  W2        15852           0.0000000000
     45398     15133  TIP3      H1             12.0403794280       41.3875175841        4.7367436648  W2        15852           0.0000000000
     45399     15133  TIP3      H2             11.2048394280       42.3156275841        3.8809736648  W2        15852           0.0000000000
     45400     15134  TIP3      OH2             1.6572794280       46.1387575841       10.3274136648  W2        15853           0.0000000000
     45401     15134  TIP3      H1              2.4019994280       46.1363275841        9.7260636648  W2        15853           0.0000000000
     45402     15134  TIP3      H2              1.7349394280       45.3151375841       10.8089236648  W2        15853           0.0000000000
     45403     15135  TIP3      OH2             8.6578594280       48.3021875841        3.5830836648  W2        15854           0.0000000000
     45404     15135  TIP3      H1              8.3626994280       49.1289775841        3.9645636648  W2        15854           0.0000000000
     45405     15135  TIP3      H2              7.9548594280       47.6828775841        3.7792236648  W2        15854           0.0000000000
     45406     15136  TIP3      OH2            -1.3347505720       44.5994475841       15.6422636648  W2        15855           0.0000000000
     45407     15136  TIP3      H1             -1.1118905720       44.1814075841       16.4740136648  W2        15855           0.0000000000
     45408     15136  TIP3      H2             -1.9367405720       43.9869475841       15.2195436648  W2        15855           0.0000000000
     45409     15137  TIP3      OH2            10.3020194280       49.4896375841       15.7450336648  W2        15857           0.0000000000
     45410     15137  TIP3      H1              9.4014494280       49.6728975841       15.4774236648  W2        15857           0.0000000000
     45411     15137  TIP3      H2             10.3361294280       49.7485675841       16.6659136648  W2        15857           0.0000000000
     45412     15138  TIP3      OH2            16.0333494280       41.7344275841        4.1122936648  W2        15858           0.0000000000
     45413     15138  TIP3      H1             15.4789794280       41.3382275841        3.4400436648  W2        15858           0.0000000000
     45414     15138  TIP3      H2             16.1337094280       42.6449475841        3.8346236648  W2        15858           0.0000000000
     45415     15139  TIP3      OH2            15.9965494280       47.5345975841       16.9494436648  W2        15859           0.0000000000
     45416     15139  TIP3      H1             15.1453994280       47.7729775841       16.5820836648  W2        15859           0.0000000000
     45417     15139  TIP3      H2             16.5868894280       47.5179175841       16.1961536648  W2        15859           0.0000000000
     45418     15140  TIP3      OH2            14.3285194280       50.5204675841        4.5775036648  W2        15860           0.0000000000
     45419     15140  TIP3      H1             13.9556294280       49.6948475841        4.8865636648  W2        15860           0.0000000000
     45420     15140  TIP3      H2             14.6058694280       50.3374075841        3.6798436648  W2        15860           0.0000000000
     45421     15141  TIP3      OH2            11.4889094280       45.3284175841       11.5986936648  W2        15861           0.0000000000
     45422     15141  TIP3      H1             10.5605994280       45.0966075841       11.5716236648  W2        15861           0.0000000000
     45423     15141  TIP3      H2             11.9400194280       44.5513975841       11.2685736648  W2        15861           0.0000000000
     45424     15142  TIP3      OH2             4.0322194280       49.6565775841        7.7315636648  W2        15862           0.0000000000
     45425     15142  TIP3      H1              4.5594394280       50.4300175841        7.5314436648  W2        15862           0.0000000000
     45426     15142  TIP3      H2              3.1520694280       49.8814975841        7.4299636648  W2        15862           0.0000000000
     45427     15143  TIP3      OH2            -0.2130105720       44.5189875841        2.3188036648  W2        15863           0.0000000000
     45428     15143  TIP3      H1              0.4029794280       45.1457075841        2.6982836648  W2        15863           0.0000000000
     45429     15143  TIP3      H2             -1.0747505720       44.8349675841        2.5904536648  W2        15863           0.0000000000
     45430     15144  TIP3      OH2             5.4594494280       47.3195675841        7.3079936648  W2        15864           0.0000000000
     45431     15144  TIP3      H1              5.2184494280       48.2450075841        7.3495236648  W2        15864           0.0000000000
     45432     15144  TIP3      H2              4.7188094280       46.8606975841        7.7043836648  W2        15864           0.0000000000
     45433     15145  TIP3      OH2             5.9741094280       51.4689275841       13.6231036648  W2        15865           0.0000000000
     45434     15145  TIP3      H1              6.3365794280       52.3234875841       13.3895436648  W2        15865           0.0000000000
     45435     15145  TIP3      H2              6.5056294280       51.1770875841       14.3637336648  W2        15865           0.0000000000
     45436     15146  TIP3      OH2             4.1425294280       52.3413275841        6.8532136648  W2        15866           0.0000000000
     45437     15146  TIP3      H1              3.1925794280       52.4470675841        6.9045436648  W2        15866           0.0000000000
     45438     15146  TIP3      H2              4.4943394280       53.1620675841        7.1979636648  W2        15866           0.0000000000
     45439     15147  TIP3      OH2             9.5181894280       47.5679975841       13.3236636648  W2        15867           0.0000000000
     45440     15147  TIP3      H1              9.0923194280       47.3401675841       14.1500636648  W2        15867           0.0000000000
     45441     15147  TIP3      H2             10.0987694280       46.8291775841       13.1411936648  W2        15867           0.0000000000
     45442     15148  TIP3      OH2            11.7210794280       48.4970475841        2.3975636648  W2        15868           0.0000000000
     45443     15148  TIP3      H1             12.0743894280       48.1170275841        3.2019136648  W2        15868           0.0000000000
     45444     15148  TIP3      H2             10.7724294280       48.4035275841        2.4844936648  W2        15868           0.0000000000
     45445     15149  TIP3      OH2            12.1766094280       52.1199475841       15.7931436648  W2        15869           0.0000000000
     45446     15149  TIP3      H1             11.5749294280       51.5642375841       15.2977736648  W2        15869           0.0000000000
     45447     15149  TIP3      H2             12.4579794280       52.7869275841       15.1668836648  W2        15869           0.0000000000
     45448     15150  TIP3      OH2            16.2245194280       52.9762975841        2.5985836648  W2        15870           0.0000000000
     45449     15150  TIP3      H1             16.9683094280       53.5623475841        2.4587436648  W2        15870           0.0000000000
     45450     15150  TIP3      H2             15.5303294280       53.5448775841        2.9318236648  W2        15870           0.0000000000
     45451     15151  TIP3      OH2             0.2991994280       39.3527175841       15.2004036648  W2        15871           0.0000000000
     45452     15151  TIP3      H1             -0.5935705720       39.6912575841       15.1328036648  W2        15871           0.0000000000
     45453     15151  TIP3      H2              0.2004794280       38.4973275841       15.6184836648  W2        15871           0.0000000000
     45454     15152  TIP3      OH2            12.5870094280       47.1692475841        4.6243536648  W2        15872           0.0000000000
     45455     15152  TIP3      H1             12.3097694280       46.4411775841        5.1804636648  W2        15872           0.0000000000
     45456     15152  TIP3      H2             13.5143094280       47.2884475841        4.8296136648  W2        15872           0.0000000000
     45457     15153  TIP3      OH2            -0.0496005720       51.1571575841       13.6353436648  W2        15873           0.0000000000
     45458     15153  TIP3      H1              0.1674294280       50.2253975841       13.6043136648  W2        15873           0.0000000000
     45459     15153  TIP3      H2              0.1967494280       51.4316575841       14.5186236648  W2        15873           0.0000000000
     45460     15154  TIP3      OH2             5.8118594280       49.6086575841        0.8445636648  W2        15874           0.0000000000
     45461     15154  TIP3      H1              6.0508394280       48.8604675841        0.2974536648  W2        15874           0.0000000000
     45462     15154  TIP3      H2              5.5429894280       49.2208275841        1.6773436648  W2        15874           0.0000000000
     45463     15155  TIP3      OH2             4.7489194280       49.1790375841        3.3008236648  W2        15875           0.0000000000
     45464     15155  TIP3      H1              4.8957194280       48.6590175841        4.0909136648  W2        15875           0.0000000000
     45465     15155  TIP3      H2              4.7460894280       50.0857975841        3.6074136648  W2        15875           0.0000000000
     45466     15156  TIP3      OH2             1.2020294280       46.4313675841        3.8113636648  W2        15876           0.0000000000
     45467     15156  TIP3      H1              0.5159594280       46.7836175841        4.3783336648  W2        15876           0.0000000000
     45468     15156  TIP3      H2              1.7248194280       47.1943275841        3.5647936648  W2        15876           0.0000000000
     45469     15157  TIP3      OH2             9.0335394280       39.0937475841       14.0902636648  W2        15877           0.0000000000
     45470     15157  TIP3      H1              9.7323294280       39.1676175841       14.7402336648  W2        15877           0.0000000000
     45471     15157  TIP3      H2              8.6526794280       38.2292475841       14.2445536648  W2        15877           0.0000000000
     45472     15158  TIP3      OH2             9.8180294280       38.7459175841        5.1874936648  W2        15878           0.0000000000
     45473     15158  TIP3      H1             10.0378594280       39.2174575841        4.3840336648  W2        15878           0.0000000000
     45474     15158  TIP3      H2             10.3764294280       39.1401775841        5.8575536648  W2        15878           0.0000000000
     45475     15159  TIP3      OH2             7.4866394280       50.8763975841        4.0502436648  W2        15879           0.0000000000
     45476     15159  TIP3      H1              6.6702494280       51.3733675841        4.1026736648  W2        15879           0.0000000000
     45477     15159  TIP3      H2              8.0162694280       51.3517475841        3.4101236648  W2        15879           0.0000000000
     45478     15160  TIP3      OH2             7.0180194280       40.4737975841        6.0223336648  W2        15880           0.0000000000
     45479     15160  TIP3      H1              7.8302794280       40.9781175841        6.0685036648  W2        15880           0.0000000000
     45480     15160  TIP3      H2              6.7733194280       40.3287675841        6.9362936648  W2        15880           0.0000000000
     45481     15161  TIP3      OH2             7.5536594280       41.4600675841       15.2069936648  W2        15881           0.0000000000
     45482     15161  TIP3      H1              7.6726894280       42.0336075841       15.9640336648  W2        15881           0.0000000000
     45483     15161  TIP3      H2              8.2091194280       40.7720075841       15.3217736648  W2        15881           0.0000000000
     45484     15162  TIP3      OH2             7.9016894280       37.5550975841        6.9604436648  W2        15882           0.0000000000
     45485     15162  TIP3      H1              7.5550394280       38.1721575841        7.6048736648  W2        15882           0.0000000000
     45486     15162  TIP3      H2              8.5603794280       38.0556675841        6.4789936648  W2        15882           0.0000000000
     45487     15163  TIP3      OH2             4.8249494280       51.9201175841        4.0319336648  W2        15883           0.0000000000
     45488     15163  TIP3      H1              4.9858194280       52.7198675841        3.5311936648  W2        15883           0.0000000000
     45489     15163  TIP3      H2              4.6277294280       52.2267175841        4.9169936648  W2        15883           0.0000000000
     45490     15164  TIP3      OH2             3.5593894280       38.6180375841        3.6476936648  W2        15884           0.0000000000
     45491     15164  TIP3      H1              3.4758694280       39.5063475841        3.9943336648  W2        15884           0.0000000000
     45492     15164  TIP3      H2              4.4494194280       38.3527075841        3.8793736648  W2        15884           0.0000000000
     45493     15165  TIP3      OH2            13.7582394280       39.3670975841       16.0419636648  W2        15885           0.0000000000
     45494     15165  TIP3      H1             12.8418194280       39.6292675841       15.9543336648  W2        15885           0.0000000000
     45495     15165  TIP3      H2             14.0937394280       39.3639975841       15.1454936648  W2        15885           0.0000000000
     45496     15166  TIP3      OH2            12.3603394280       43.1171975841       10.1376936648  W2        15886           0.0000000000
     45497     15166  TIP3      H1             11.5627794280       42.7022175841        9.8091936648  W2        15886           0.0000000000
     45498     15166  TIP3      H2             12.8054494280       42.4265675841       10.6287436648  W2        15886           0.0000000000
     45499     15167  TIP3      OH2             1.8179194280       49.0452575841        2.7081436648  W2        15887           0.0000000000
     45500     15167  TIP3      H1              2.4100694280       49.7447375841        2.9843836648  W2        15887           0.0000000000
     45501     15167  TIP3      H2              2.2772194280       48.6122075841        1.9886036648  W2        15887           0.0000000000
     45502     15168  TIP3      OH2             0.1338394280       41.7095575841        1.8240836648  W2        15888           0.0000000000
     45503     15168  TIP3      H1              0.0890994280       42.6488675841        2.0027836648  W2        15888           0.0000000000
     45504     15168  TIP3      H2             -0.7538405720       41.4740475841        1.5542936648  W2        15888           0.0000000000
     45505     15169  TIP3      OH2            13.4467994280       52.3734475841       11.7600436648  W2        15889           0.0000000000
     45506     15169  TIP3      H1             13.2912294280       53.0518875841       11.1029736648  W2        15889           0.0000000000
     45507     15169  TIP3      H2             14.3794394280       52.4453775841       11.9631036648  W2        15889           0.0000000000
     45508     15170  TIP3      OH2             0.9420394280       36.4912175841       10.4971836648  W2        15890           0.0000000000
     45509     15170  TIP3      H1              0.7130194280       36.5504675841        9.5696836648  W2        15890           0.0000000000
     45510     15170  TIP3      H2              0.4993794280       35.6997675841       10.8035936648  W2        15890           0.0000000000
     45511     15171  TIP3      OH2            -0.1276305720       50.4319275841        6.6577636648  W2        15891           0.0000000000
     45512     15171  TIP3      H1             -0.9597705720       50.9041975841        6.6849036648  W2        15891           0.0000000000
     45513     15171  TIP3      H2              0.4181994280       50.9416875841        6.0590736648  W2        15891           0.0000000000
     45514     15172  TIP3      OH2             7.8500394280       51.4717975841        0.9831636648  W2        15894           0.0000000000
     45515     15172  TIP3      H1              7.2061394280       50.8406575841        1.3045336648  W2        15894           0.0000000000
     45516     15172  TIP3      H2              8.6118694280       50.9405975841        0.7515136648  W2        15894           0.0000000000
     45517     15173  TIP3      OH2            12.4543294280       51.2887875841        1.2169636648  W2        15896           0.0000000000
     45518     15173  TIP3      H1             12.7373694280       50.4943075841        1.6696536648  W2        15896           0.0000000000
     45519     15173  TIP3      H2             13.1941194280       51.5218875841        0.6560736648  W2        15896           0.0000000000
     45520     15174  TIP3      OH2             3.4090594280       47.1982775841        1.0744536648  W2        15898           0.0000000000
     45521     15174  TIP3      H1              3.4734694280       46.4042375841        1.6050936648  W2        15898           0.0000000000
     45522     15174  TIP3      H2              4.0619794280       47.0795575841        0.3846536648  W2        15898           0.0000000000
     45523     15175  TIP3      OH2             8.7613994280       48.2454475841        0.8102536648  W2        15900           0.0000000000
     45524     15175  TIP3      H1              8.4928094280       48.4256575841        1.7111436648  W2        15900           0.0000000000
     45525     15175  TIP3      H2              8.5549594280       47.3200675841        0.6788336648  W2        15900           0.0000000000
     45526     15176  TIP3      OH2            11.4578194280       46.7402475841       15.7578636648  W2        15901           0.0000000000
     45527     15176  TIP3      H1             12.2032994280       47.3286175841       15.6382636648  W2        15901           0.0000000000
     45528     15176  TIP3      H2             10.7004994280       47.3222175841       15.8211736648  W2        15901           0.0000000000
     45529     15177  TIP3      OH2             4.5584394280       45.1708975841        3.3802536648  W2        15903           0.0000000000
     45530     15177  TIP3      H1              4.0986394280       44.6867275841        4.0661036648  W2        15903           0.0000000000
     45531     15177  TIP3      H2              4.8133094280       44.5024375841        2.7443036648  W2        15903           0.0000000000
     45532     15178  TIP3      OH2             3.8473694280       43.0636075841       15.7362136648  W2        15904           0.0000000000
     45533     15178  TIP3      H1              3.2289794280       43.7382675841       16.0166836648  W2        15904           0.0000000000
     45534     15178  TIP3      H2              4.1914894280       43.3849975841       14.9028336648  W2        15904           0.0000000000
     45535     15179  TIP3      OH2             5.6294794280       43.4140775841        1.6425736648  W2        15905           0.0000000000
     45536     15179  TIP3      H1              5.4489794280       43.2591975841        0.7154036648  W2        15905           0.0000000000
     45537     15179  TIP3      H2              6.5795294280       43.5219475841        1.6873636648  W2        15905           0.0000000000
     45538     15180  TIP3      OH2            15.0193094280       45.7684975841        1.0883836648  W2        15907           0.0000000000
     45539     15180  TIP3      H1             14.7457894280       45.3440475841        0.2752136648  W2        15907           0.0000000000
     45540     15180  TIP3      H2             15.0587194280       46.6999475841        0.8714236648  W2        15907           0.0000000000
     45541     15181  TIP3      OH2             4.1867394280       40.4186875841       16.8185236648  W2        15908           0.0000000000
     45542     15181  TIP3      H1              4.3368294280       39.6898175841       16.2164936648  W2        15908           0.0000000000
     45543     15181  TIP3      H2              4.1889794280       41.1958575841       16.2597436648  W2        15908           0.0000000000
     45544     15182  TIP3      OH2             4.5993094280       38.7882675841       14.3112636648  W2        15909           0.0000000000
     45545     15182  TIP3      H1              5.1350594280       39.2399375841       13.6591936648  W2        15909           0.0000000000
     45546     15182  TIP3      H2              3.7472694280       38.6802475841       13.8886736648  W2        15909           0.0000000000
     45547     15183  TIP3      OH2             6.1811494280       44.2278875841       14.5507836648  W2        15910           0.0000000000
     45548     15183  TIP3      H1              6.9316294280       44.0716375841       13.9775636648  W2        15910           0.0000000000
     45549     15183  TIP3      H2              5.8419794280       45.0795475841       14.2753336648  W2        15910           0.0000000000
     45550     15184  TIP3      OH2            11.9134894280       44.8315875841       17.6565836648  W2        15912           0.0000000000
     45551     15184  TIP3      H1             11.6319894280       45.5410475841       17.0789636648  W2        15912           0.0000000000
     45552     15184  TIP3      H2             12.8559194280       44.7588875841       17.5057036648  W2        15912           0.0000000000
     45553     15185  TIP3      OH2             5.4048594280       36.2448375841       14.7426236648  W2        15914           0.0000000000
     45554     15185  TIP3      H1              5.3068194280       37.1911575841       14.6372436648  W2        15914           0.0000000000
     45555     15185  TIP3      H2              4.6624794280       35.8722175841       14.2669736648  W2        15914           0.0000000000
     45556     15186  TIP3      OH2             9.3845694280       39.6937275841       17.3818136648  W2        15916           0.0000000000
     45557     15186  TIP3      H1              8.4371094280       39.7256975841       17.5141436648  W2        15916           0.0000000000
     45558     15186  TIP3      H2              9.6972394280       39.0684375841       18.0356336648  W2        15916           0.0000000000
     45559     15187  TIP3      OH2             5.6266694280       35.5385775841       17.4139036648  W2        15919           0.0000000000
     45560     15187  TIP3      H1              6.3385094280       34.8987975841       17.3998136648  W2        15919           0.0000000000
     45561     15187  TIP3      H2              5.5257094280       35.8054075841       16.5002136648  W2        15919           0.0000000000
     45562     15188  TIP3      OH2             5.5266494280       54.1044475841        2.6439336648  W2        15921           0.0000000000
     45563     15188  TIP3      H1              6.4597194280       54.2623175841        2.7877736648  W2        15921           0.0000000000
     45564     15188  TIP3      H2              5.2625294280       54.7797475841        2.0190836648  W2        15921           0.0000000000
     45565     15189  TIP3      OH2            -0.9048605720       48.7408275841        2.1267436648  W2        15922           0.0000000000
     45566     15189  TIP3      H1              0.0090594280       48.8197175841        2.4001336648  W2        15922           0.0000000000
     45567     15189  TIP3      H2             -0.8975505720       48.0537875841        1.4603036648  W2        15922           0.0000000000
     45568     15190  TIP3      OH2            -2.2558005720       54.1336775841        7.2041336648  W2        15923           0.0000000000
     45569     15190  TIP3      H1             -2.9030905720       53.6718475841        6.6712536648  W2        15923           0.0000000000
     45570     15190  TIP3      H2             -1.9013405720       53.4620075841        7.7867536648  W2        15923           0.0000000000
     45571     15191  TIP3      OH2            -1.3858805720       52.2143775841        9.0087536648  W2        15924           0.0000000000
     45572     15191  TIP3      H1             -1.7202005720       51.3341075841        9.1807736648  W2        15924           0.0000000000
     45573     15191  TIP3      H2             -1.1636405720       52.5598775841        9.8733136648  W2        15924           0.0000000000
     45574     15192  TIP3      OH2            16.1625994280       53.0240175841       11.9892336648  W2        15925           0.0000000000
     45575     15192  TIP3      H1             16.1412694280       53.2088575841       12.9281736648  W2        15925           0.0000000000
     45576     15192  TIP3      H2             16.8532194280       53.5924175841       11.6483736648  W2        15925           0.0000000000
     45577     15193  TIP3      OH2            15.7258894280       52.5911275841       14.9111436648  W2        15926           0.0000000000
     45578     15193  TIP3      H1             15.2387594280       51.8555375841       14.5398836648  W2        15926           0.0000000000
     45579     15193  TIP3      H2             16.2751594280       52.1975175841       15.5890836648  W2        15926           0.0000000000
     45580     15194  TIP3      OH2            15.4775894280       46.6373075841        5.0634236648  W2        15928           0.0000000000
     45581     15194  TIP3      H1             16.3277294280       47.0583975841        5.1905836648  W2        15928           0.0000000000
     45582     15194  TIP3      H2             15.4830994280       45.8973175841        5.6705636648  W2        15928           0.0000000000
     45583     15195  TIP3      OH2            15.8721494280       44.6910475841        6.8869936648  W2        15929           0.0000000000
     45584     15195  TIP3      H1             15.1456094280       44.2113075841        7.2847536648  W2        15929           0.0000000000
     45585     15195  TIP3      H2             16.4534794280       44.8965175841        7.6191536648  W2        15929           0.0000000000
     45586     15196  TIP3      OH2            15.6312694280       47.4757975841       11.8347536648  W2        15930           0.0000000000
     45587     15196  TIP3      H1             16.4646894280       47.0977975841       11.5541136648  W2        15930           0.0000000000
     45588     15196  TIP3      H2             15.7432994280       48.4189175841       11.7156636648  W2        15930           0.0000000000
     45589     15197  TIP3      OH2            14.1174994280       50.3535475841       14.1415936648  W2        15931           0.0000000000
     45590     15197  TIP3      H1             13.4700294280       50.6786975841       14.7671136648  W2        15931           0.0000000000
     45591     15197  TIP3      H2             13.5998994280       49.9133175841       13.4674236648  W2        15931           0.0000000000
     45592     15198  TIP3      OH2            16.1404594280       44.5918975841        3.2781236648  W2        15932           0.0000000000
     45593     15198  TIP3      H1             15.6185694280       44.9483075841        2.5592136648  W2        15932           0.0000000000
     45594     15198  TIP3      H2             16.1073794280       45.2666775841        3.9562136648  W2        15932           0.0000000000
     45595     15199  TIP3      OH2            14.4893594280       41.8314575841        1.8288336648  W2        15933           0.0000000000
     45596     15199  TIP3      H1             14.5857994280       42.4981575841        1.1488036648  W2        15933           0.0000000000
     45597     15199  TIP3      H2             14.3493194280       41.0160875841        1.3473836648  W2        15933           0.0000000000
     45598     15200  TIP3      OH2            13.6588294280       43.2116975841        7.4498636648  W2        15934           0.0000000000
     45599     15200  TIP3      H1             13.5087094280       42.2665575841        7.4296436648  W2        15934           0.0000000000
     45600     15200  TIP3      H2             13.3052794280       43.4928375841        8.2937736648  W2        15934           0.0000000000
     45601     15201  TIP3      OH2            -1.3059305720       45.2899175841       11.4602436648  W2        15935           0.0000000000
     45602     15201  TIP3      H1             -1.1216405720       45.2080875841       10.5245336648  W2        15935           0.0000000000
     45603     15201  TIP3      H2             -0.4566405720       45.1656175841       11.8838836648  W2        15935           0.0000000000
     45604     15202  TIP3      OH2            14.5151194280       45.1820275841       17.0886936648  W2        15936           0.0000000000
     45605     15202  TIP3      H1             15.0978494280       44.4472575841       17.2804136648  W2        15936           0.0000000000
     45606     15202  TIP3      H2             15.0790494280       45.9540575841       17.1352736648  W2        15936           0.0000000000
     45607     15203  TIP3      OH2            16.0118294280       43.0846075841       17.7732336648  W2        15937           0.0000000000
     45608     15203  TIP3      H1             15.1484994280       42.7058175841       17.6077036648  W2        15937           0.0000000000
     45609     15203  TIP3      H2             16.6161994280       42.3460875841       17.6988136648  W2        15937           0.0000000000
     45610     15204  TIP3      OH2            13.7367394280       39.2394375841        0.9463836648  W2        15938           0.0000000000
     45611     15204  TIP3      H1             14.3473194280       38.8681175841        1.5832036648  W2        15938           0.0000000000
     45612     15204  TIP3      H2             12.8998894280       38.8181275841        1.1423836648  W2        15938           0.0000000000
     45613     15205  TIP3      OH2            13.3693094280       40.7942775841        5.9123736648  W2        15939           0.0000000000
     45614     15205  TIP3      H1             13.6490194280       39.8873175841        6.0365436648  W2        15939           0.0000000000
     45615     15205  TIP3      H2             14.1284794280       41.2284275841        5.5232936648  W2        15939           0.0000000000
     45616     15206  TIP3      OH2            13.9811394280       41.3760175841       11.3482636648  W2        15940           0.0000000000
     45617     15206  TIP3      H1             14.9139394280       41.5880075841       11.3138636648  W2        15940           0.0000000000
     45618     15206  TIP3      H2             13.7458894280       41.4772275841       12.2705636648  W2        15940           0.0000000000
     45619     15207  TIP3      OH2            14.0103294280       42.1125475841       14.1242036648  W2        15941           0.0000000000
     45620     15207  TIP3      H1             13.1674594280       42.3805875841       14.4901836648  W2        15941           0.0000000000
     45621     15207  TIP3      H2             14.4527594280       42.9347375841       13.9133136648  W2        15941           0.0000000000
     45622     15208  TIP3      OH2            -1.7084505720       40.5604175841       17.6011236648  W2        15942           0.0000000000
     45623     15208  TIP3      H1             -0.7889605720       40.4382475841       17.8374336648  W2        15942           0.0000000000
     45624     15208  TIP3      H2             -2.1580005720       39.8103875841       17.9904736648  W2        15942           0.0000000000
     45625     15209  TIP3      OH2            13.9827894280       38.0572075841        5.9605736648  W2        15944           0.0000000000
     45626     15209  TIP3      H1             14.1652894280       37.6083575841        6.7860736648  W2        15944           0.0000000000
     45627     15209  TIP3      H2             13.3830794280       37.4726475841        5.4970336648  W2        15944           0.0000000000
     45628     15210  TIP3      OH2            -0.4872005720       38.8725775841       10.4924136648  W2        15945           0.0000000000
     45629     15210  TIP3      H1             -0.0420405720       38.0808275841       10.7943836648  W2        15945           0.0000000000
     45630     15210  TIP3      H2             -0.0209005720       39.5890975841       10.9229736648  W2        15945           0.0000000000
     45631     15211  TIP3      OH2            -2.1831705720       41.8718775841       11.5614336648  W2        15946           0.0000000000
     45632     15211  TIP3      H1             -1.6911905720       41.6509275841       10.7706336648  W2        15946           0.0000000000
     45633     15211  TIP3      H2             -1.8210805720       42.7122175841       11.8423836648  W2        15946           0.0000000000
     45634     15212  TIP3      OH2            15.8494094280       38.1250175841        2.4886036648  W2        15948           0.0000000000
     45635     15212  TIP3      H1             16.2616694280       37.4035875841        2.0134036648  W2        15948           0.0000000000
     45636     15212  TIP3      H2             16.5310594280       38.7944775841        2.5470336648  W2        15948           0.0000000000
     45637     15213  TIP3      OH2            -1.8695205720       38.1297875841        5.6156736648  W2        15949           0.0000000000
     45638     15213  TIP3      H1             -2.7946805720       38.3384475841        5.4862236648  W2        15949           0.0000000000
     45639     15213  TIP3      H2             -1.4155305720       38.6138675841        4.9259036648  W2        15949           0.0000000000
     45640     15214  TIP3      OH2            12.9011994280       53.1139575841        7.5614136648  W2        15950           0.0000000000
     45641     15214  TIP3      H1             13.5534894280       52.7661675841        6.9533236648  W2        15950           0.0000000000
     45642     15214  TIP3      H2             13.4115794280       53.6022775841        8.2073836648  W2        15950           0.0000000000
     45643     15215  TIP3      OH2            -1.9059805720       36.8676875841       13.9599236648  W2        15951           0.0000000000
     45644     15215  TIP3      H1             -2.5709305720       36.6217175841       14.6030136648  W2        15951           0.0000000000
     45645     15215  TIP3      H2             -2.3488505720       37.4897275841       13.3827236648  W2        15951           0.0000000000
     45646     15216  TIP3      OH2             3.2402394280       51.0172175841       14.3629036648  W2        15953           0.0000000000
     45647     15216  TIP3      H1              2.8153494280       51.8270675841       14.0803636648  W2        15953           0.0000000000
     45648     15216  TIP3      H2              4.1445194280       51.1026275841       14.0608836648  W2        15953           0.0000000000
     45649     15217  TIP3      OH2             7.5513794280       52.4162175841       17.3222736648  W2        15954           0.0000000000
     45650     15217  TIP3      H1              7.7361294280       52.0828275841       18.2003036648  W2        15954           0.0000000000
     45651     15217  TIP3      H2              8.3978294280       52.7260775841       17.0001936648  W2        15954           0.0000000000
     45652     15218  TIP3      OH2             9.8964194280       53.7021075841       16.5664136648  W2        15955           0.0000000000
     45653     15218  TIP3      H1             10.5733094280       53.0693375841       16.3263336648  W2        15955           0.0000000000
     45654     15218  TIP3      H2             10.2182994280       54.1031575841       17.3737436648  W2        15955           0.0000000000
     45655     15219  TIP3      OH2            14.8137994280       36.2916575841       15.6459136648  W2        15956           0.0000000000
     45656     15219  TIP3      H1             14.0011494280       36.6166875841       15.2583836648  W2        15956           0.0000000000
     45657     15219  TIP3      H2             15.0466494280       35.5315075841       15.1128236648  W2        15956           0.0000000000
     45658     15220  TIP3      OH2             0.6419094280       54.2736075841       14.4104336648  W2        15957           0.0000000000
     45659     15220  TIP3      H1             -0.0784505720       54.7137075841       13.9592036648  W2        15957           0.0000000000
     45660     15220  TIP3      H2              0.2763094280       54.0230775841       15.2588336648  W2        15957           0.0000000000
     45661     15221  TIP3      OH2             3.1091694280       53.8739975841       13.4401536648  W2        15958           0.0000000000
     45662     15221  TIP3      H1              2.2443894280       53.9458475841       13.8441636648  W2        15958           0.0000000000
     45663     15221  TIP3      H2              3.0540694280       54.4207275841       12.6564036648  W2        15958           0.0000000000
     45664     15222  TIP3      OH2             7.8197294280       53.7618875841       12.6157536648  W2        15959           0.0000000000
     45665     15222  TIP3      H1              7.3631294280       54.2908575841       11.9615936648  W2        15959           0.0000000000
     45666     15222  TIP3      H2              7.9825294280       54.3650275841       13.3409836648  W2        15959           0.0000000000
     45667     15223  TIP3      OH2            10.1473594280       52.6398475841       13.5607836648  W2        15960           0.0000000000
     45668     15223  TIP3      H1              9.2427294280       52.8048675841       13.2949936648  W2        15960           0.0000000000
     45669     15223  TIP3      H2             10.5762194280       53.4930675841       13.4951236648  W2        15960           0.0000000000
     45670     15224  TIP3      OH2            12.7515494280       54.2097575841       13.8555636648  W2        15961           0.0000000000
     45671     15224  TIP3      H1             12.5697494280       55.1256475841       13.6450536648  W2        15961           0.0000000000
     45672     15224  TIP3      H2             12.9283294280       53.7994675841       13.0090236648  W2        15961           0.0000000000
     45673     15225  TIP3      OH2             0.0567194280       52.8968575841       11.3206136648  W2        15962           0.0000000000
     45674     15225  TIP3      H1              0.0383194280       52.4713675841       12.1778436648  W2        15962           0.0000000000
     45675     15225  TIP3      H2              0.8615094280       52.5783575841       10.9118336648  W2        15962           0.0000000000
     45676     15226  TIP3      OH2             2.1980294280       51.6067275841        9.9756036648  W2        15963           0.0000000000
     45677     15226  TIP3      H1              1.9790994280       50.6904675841       10.1452036648  W2        15963           0.0000000000
     45678     15226  TIP3      H2              3.0222494280       51.7467675841       10.4417436648  W2        15963           0.0000000000
     45679     15227  TIP3      OH2             4.7352794280       52.0766575841       10.8244036648  W2        15964           0.0000000000
     45680     15227  TIP3      H1              4.9478494280       51.1885575841       10.5374936648  W2        15964           0.0000000000
     45681     15227  TIP3      H2              4.7997894280       52.0424275841       11.7788036648  W2        15964           0.0000000000
     45682     15228  TIP3      OH2             8.2436494280       37.7407175841        9.9687336648  W2        15965           0.0000000000
     45683     15228  TIP3      H1              7.5693294280       37.1112775841       10.2243136648  W2        15965           0.0000000000
     45684     15228  TIP3      H2              8.8075694280       37.2566075841        9.3655236648  W2        15965           0.0000000000
     45685     15229  TIP3      OH2            13.3863694280       35.8481175841       10.0814436648  W2        15966           0.0000000000
     45686     15229  TIP3      H1             13.9901294280       36.3956575841        9.5795436648  W2        15966           0.0000000000
     45687     15229  TIP3      H2             12.5165694280       36.1671575841        9.8408536648  W2        15966           0.0000000000
     45688     15230  TIP3      OH2            15.1134094280       36.9869875841        8.4145336648  W2        15967           0.0000000000
     45689     15230  TIP3      H1             15.7251594280       36.4725575841        7.8878936648  W2        15967           0.0000000000
     45690     15230  TIP3      H2             15.4957494280       37.8641975841        8.4379736648  W2        15967           0.0000000000
     45691     15231  TIP3      OH2             0.5703994280       36.3747475841        7.7907236648  W2        15968           0.0000000000
     45692     15231  TIP3      H1             -0.2066205720       36.1402375841        7.2833136648  W2        15968           0.0000000000
     45693     15231  TIP3      H2              1.1007594280       35.5779575841        7.7995236648  W2        15968           0.0000000000
     45694     15232  TIP3      OH2            -0.5932605720       36.1725575841        3.5943336648  W2        15969           0.0000000000
     45695     15232  TIP3      H1             -0.1541905720       36.7836075841        3.0026836648  W2        15969           0.0000000000
     45696     15232  TIP3      H2             -1.2270205720       36.7109675841        4.0683336648  W2        15969           0.0000000000
     45697     15233  TIP3      OH2             5.1496594280       36.3014575841        7.6040336648  W2        15970           0.0000000000
     45698     15233  TIP3      H1              6.0239994280       36.6898875841        7.5744636648  W2        15970           0.0000000000
     45699     15233  TIP3      H2              5.0137394280       36.0862375841        8.5267536648  W2        15970           0.0000000000
     45700     15234  TIP3      OH2            10.7064994280       36.3314375841        9.2532036648  W2        15971           0.0000000000
     45701     15234  TIP3      H1             10.7826594280       36.4265975841        8.3038036648  W2        15971           0.0000000000
     45702     15234  TIP3      H2             10.4314194280       35.4237275841        9.3821136648  W2        15971           0.0000000000
     45703     15235  TIP3      OH2            12.0597594280       36.3572175841        4.9457036648  W2        15972           0.0000000000
     45704     15235  TIP3      H1             11.3568694280       36.9721375841        4.7358436648  W2        15972           0.0000000000
     45705     15235  TIP3      H2             11.6148994280       35.5198875841        5.0767936648  W2        15972           0.0000000000
     45706     15236  TIP3      OH2            -0.6923105720       52.1207775841        4.4918436648  W2        15973           0.0000000000
     45707     15236  TIP3      H1             -1.3773205720       52.0826675841        3.8243536648  W2        15973           0.0000000000
     45708     15236  TIP3      H2             -0.6885905720       53.0335375841        4.7800536648  W2        15973           0.0000000000
     45709     15237  TIP3      OH2             1.2676494280       38.0887075841        2.0367436648  W2        15974           0.0000000000
     45710     15237  TIP3      H1              1.7589894280       37.4589475841        1.5092936648  W2        15974           0.0000000000
     45711     15237  TIP3      H2              1.8912794280       38.3846475841        2.6998636648  W2        15974           0.0000000000
     45712     15238  TIP3      OH2             6.2936594280       38.3818575841        4.4937936648  W2        15975           0.0000000000
     45713     15238  TIP3      H1              6.4717894280       37.7351775841        5.1766536648  W2        15975           0.0000000000
     45714     15238  TIP3      H2              6.2402794280       39.2156275841        4.9609036648  W2        15975           0.0000000000
     45715     15239  TIP3      OH2             8.1720394280       53.3302675841        2.8894636648  W2        15976           0.0000000000
     45716     15239  TIP3      H1              9.0380594280       53.6970075841        2.7112836648  W2        15976           0.0000000000
     45717     15239  TIP3      H2              7.9253194280       52.8910675841        2.0755436648  W2        15976           0.0000000000
     45718     15240  TIP3      OH2            14.8809994280       52.8932975841        5.5685736648  W2        15977           0.0000000000
     45719     15240  TIP3      H1             14.6867094280       52.1455075841        5.0035336648  W2        15977           0.0000000000
     45720     15240  TIP3      H2             14.8420094280       53.6513075841        4.9853636648  W2        15977           0.0000000000
     45721     15241  TIP3      OH2             0.5281994280       36.8889375841       17.3083436648  W2        15978           0.0000000000
     45722     15241  TIP3      H1              0.1620194280       36.1231975841       17.7508136648  W2        15978           0.0000000000
     45723     15241  TIP3      H2              1.4410494280       36.9179575841       17.5948536648  W2        15978           0.0000000000
     45724     15242  TIP3      OH2             1.1258094280       53.0408575841        1.5170536648  W2        15980           0.0000000000
     45725     15242  TIP3      H1              0.8582694280       53.3271475841        2.3903636648  W2        15980           0.0000000000
     45726     15242  TIP3      H2              1.8970694280       52.4947775841        1.6693036648  W2        15980           0.0000000000
     45727     15243  TIP3      OH2            14.0986194280       51.6445375841       17.7187536648  W2        15982           0.0000000000
     45728     15243  TIP3      H1             13.3168094280       51.4583375841       17.1988136648  W2        15982           0.0000000000
     45729     15243  TIP3      H2             14.0266094280       52.5739675841       17.9360036648  W2        15982           0.0000000000
     45730     15244  TIP3      OH2            28.5046594280       45.5309775841        7.7494736648  W2        15983           0.0000000000
     45731     15244  TIP3      H1             28.5937694280       46.4747975841        7.6171836648  W2        15983           0.0000000000
     45732     15244  TIP3      H2             27.8664194280       45.2556175841        7.0914136648  W2        15983           0.0000000000
     45733     15245  TIP3      OH2            27.4377894280       44.7860475841       11.1682936648  W2        15984           0.0000000000
     45734     15245  TIP3      H1             27.3995394280       44.1396775841       11.8732536648  W2        15984           0.0000000000
     45735     15245  TIP3      H2             27.1154394280       44.3194875841       10.3971636648  W2        15984           0.0000000000
     45736     15246  TIP3      OH2            19.8062894280       44.4002575841       12.7612836648  W2        15985           0.0000000000
     45737     15246  TIP3      H1             19.8474994280       43.7745875841       13.4845236648  W2        15985           0.0000000000
     45738     15246  TIP3      H2             20.5090594280       45.0241175841       12.9433236648  W2        15985           0.0000000000
     45739     15247  TIP3      OH2            31.1438094280       47.7250875841        9.4698036648  W2        15986           0.0000000000
     45740     15247  TIP3      H1             30.7030794280       47.0046875841        9.9203636648  W2        15986           0.0000000000
     45741     15247  TIP3      H2             31.1307794280       48.4458075841       10.0995736648  W2        15986           0.0000000000
     45742     15248  TIP3      OH2            20.7295994280       48.8501475841       11.2961936648  W2        15987           0.0000000000
     45743     15248  TIP3      H1             20.3601194280       48.0481975841       10.9266236648  W2        15987           0.0000000000
     45744     15248  TIP3      H2             21.6707094280       48.6816375841       11.3425336648  W2        15987           0.0000000000
     45745     15249  TIP3      OH2            17.3396494280       42.5104075841        6.6890736648  W2        15988           0.0000000000
     45746     15249  TIP3      H1             16.8919894280       43.3562775841        6.6707236648  W2        15988           0.0000000000
     45747     15249  TIP3      H2             16.7787694280       41.9308275841        6.1735836648  W2        15988           0.0000000000
     45748     15250  TIP3      OH2            18.0502594280       44.6723675841        8.8148736648  W2        15989           0.0000000000
     45749     15250  TIP3      H1             18.2636094280       43.9025275841        9.3421736648  W2        15989           0.0000000000
     45750     15250  TIP3      H2             18.7880194280       44.7620375841        8.2116336648  W2        15989           0.0000000000
     45751     15251  TIP3      OH2            28.2553594280       52.8292575841        9.6818436648  W2        15990           0.0000000000
     45752     15251  TIP3      H1             28.8749994280       52.1527275841        9.4087636648  W2        15990           0.0000000000
     45753     15251  TIP3      H2             28.0470994280       52.6113375841       10.5903336648  W2        15990           0.0000000000
     45754     15252  TIP3      OH2            25.8272294280       47.2181875841       11.5743936648  W2        15991           0.0000000000
     45755     15252  TIP3      H1             26.1310194280       46.5323275841       10.9798036648  W2        15991           0.0000000000
     45756     15252  TIP3      H2             26.5486294280       47.3370575841       12.1921936648  W2        15991           0.0000000000
     45757     15253  TIP3      OH2            34.4902094280       38.8197175841       12.4350136648  W2        15992           0.0000000000
     45758     15253  TIP3      H1             34.5394294280       39.4298375841       13.1709236648  W2        15992           0.0000000000
     45759     15253  TIP3      H2             34.9157194280       39.2808075841       11.7121236648  W2        15992           0.0000000000
     45760     15254  TIP3      OH2            28.9679294280       41.6124275841       11.9018736648  W2        15993           0.0000000000
     45761     15254  TIP3      H1             29.1105194280       40.6661275841       11.9220336648  W2        15993           0.0000000000
     45762     15254  TIP3      H2             28.8618294280       41.8194075841       10.9733636648  W2        15993           0.0000000000
     45763     15255  TIP3      OH2            22.1227594280       39.7140675841        9.1743536648  W2        15994           0.0000000000
     45764     15255  TIP3      H1             22.1658694280       40.5739175841        8.7559836648  W2        15994           0.0000000000
     45765     15255  TIP3      H2             21.6651694280       39.1615375841        8.5406736648  W2        15994           0.0000000000
     45766     15256  TIP3      OH2            29.8450294280       39.8446275841        7.5751836648  W2        15995           0.0000000000
     45767     15256  TIP3      H1             30.4914594280       39.5159475841        8.1999436648  W2        15995           0.0000000000
     45768     15256  TIP3      H2             30.3549694280       40.3625275841        6.9523236648  W2        15995           0.0000000000
     45769     15257  TIP3      OH2            18.7429094280       42.1106475841        9.9364936648  W2        15996           0.0000000000
     45770     15257  TIP3      H1             19.3965694280       41.5608175841       10.3685036648  W2        15996           0.0000000000
     45771     15257  TIP3      H2             18.7668394280       41.8365475841        9.0196936648  W2        15996           0.0000000000
     45772     15258  TIP3      OH2            23.8993594280       43.6607775841        9.1516436648  W2        15997           0.0000000000
     45773     15258  TIP3      H1             24.5154594280       43.1343175841        9.6610436648  W2        15997           0.0000000000
     45774     15258  TIP3      H2             23.3132394280       43.0206475841        8.7480036648  W2        15997           0.0000000000
     45775     15259  TIP3      OH2            34.8816694280       40.2976375841       14.6709936648  W2        15998           0.0000000000
     45776     15259  TIP3      H1             34.1931294280       40.9557075841       14.5756536648  W2        15998           0.0000000000
     45777     15259  TIP3      H2             34.8971294280       40.1004275841       15.6075336648  W2        15998           0.0000000000
     45778     15260  TIP3      OH2            20.9329494280       38.6319075841       13.2484336648  W2        15999           0.0000000000
     45779     15260  TIP3      H1             20.7141194280       39.1619675841       12.4820336648  W2        15999           0.0000000000
     45780     15260  TIP3      H2             20.2650394280       38.8584575841       13.8955736648  W2        15999           0.0000000000
     45781     15261  TIP3      OH2            28.3019294280       48.1320175841        6.7923436648  W2        16000           0.0000000000
     45782     15261  TIP3      H1             28.0064394280       47.8092475841        5.9410336648  W2        16000           0.0000000000
     45783     15261  TIP3      H2             27.9777094280       49.0316875841        6.8336036648  W2        16000           0.0000000000
     45784     15262  TIP3      OH2            23.5020894280       46.3074775841       13.5358036648  W2        16001           0.0000000000
     45785     15262  TIP3      H1             22.7619994280       46.9056275841       13.6393236648  W2        16001           0.0000000000
     45786     15262  TIP3      H2             24.2160394280       46.8614375841       13.2201636648  W2        16001           0.0000000000
     45787     15263  TIP3      OH2            31.6088694280       39.1355575841        9.5557736648  W2        16002           0.0000000000
     45788     15263  TIP3      H1             31.3936694280       38.3698975841       10.0883736648  W2        16002           0.0000000000
     45789     15263  TIP3      H2             32.2646094280       39.6080175841       10.0686236648  W2        16002           0.0000000000
     45790     15264  TIP3      OH2            20.5266794280       40.5240875841       11.2006536648  W2        16003           0.0000000000
     45791     15264  TIP3      H1             21.1403094280       41.1568475841       11.5738936648  W2        16003           0.0000000000
     45792     15264  TIP3      H2             21.0387494280       40.0515875841       10.5443436648  W2        16003           0.0000000000
     45793     15265  TIP3      OH2            21.9095194280       48.2717775841       14.3229536648  W2        16004           0.0000000000
     45794     15265  TIP3      H1             21.9042794280       49.1511275841       13.9448836648  W2        16004           0.0000000000
     45795     15265  TIP3      H2             21.0559294280       48.1881875841       14.7479436648  W2        16004           0.0000000000
     45796     15266  TIP3      OH2            18.0306094280       47.9425675841        5.1048836648  W2        16005           0.0000000000
     45797     15266  TIP3      H1             17.7586994280       48.1716675841        4.2161736648  W2        16005           0.0000000000
     45798     15266  TIP3      H2             18.0761794280       48.7804475841        5.5654136648  W2        16005           0.0000000000
     45799     15267  TIP3      OH2            31.6555794280       49.5641575841       11.8177336648  W2        16006           0.0000000000
     45800     15267  TIP3      H1             30.7139494280       49.6225475841       11.9794236648  W2        16006           0.0000000000
     45801     15267  TIP3      H2             31.9321894280       50.4702075841       11.6807036648  W2        16006           0.0000000000
     45802     15268  TIP3      OH2            31.9562794280       37.8506875841       13.2351236648  W2        16007           0.0000000000
     45803     15268  TIP3      H1             31.2201994280       38.4613975841       13.1972536648  W2        16007           0.0000000000
     45804     15268  TIP3      H2             32.6396794280       38.2655875841       12.7087636648  W2        16007           0.0000000000
     45805     15269  TIP3      OH2            24.9594194280       35.9374175841       10.7009236648  W2        16008           0.0000000000
     45806     15269  TIP3      H1             24.8418394280       34.9890175841       10.6467536648  W2        16008           0.0000000000
     45807     15269  TIP3      H2             24.1044294280       36.2700275841       10.9740336648  W2        16008           0.0000000000
     45808     15270  TIP3      OH2            29.9076994280       51.3455075841        8.4428936648  W2        16009           0.0000000000
     45809     15270  TIP3      H1             30.3329294280       50.6382975841        7.9578536648  W2        16009           0.0000000000
     45810     15270  TIP3      H2             30.2246994280       52.1467775841        8.0261136648  W2        16009           0.0000000000
     45811     15271  TIP3      OH2            31.0673494280       49.2463575841        6.9515536648  W2        16010           0.0000000000
     45812     15271  TIP3      H1             30.8098294280       48.5563675841        6.3401436648  W2        16010           0.0000000000
     45813     15271  TIP3      H2             31.1384294280       48.8034775841        7.7971436648  W2        16010           0.0000000000
     45814     15272  TIP3      OH2            32.7533694280       47.8130275841       15.4289036648  W2        16011           0.0000000000
     45815     15272  TIP3      H1             32.8929994280       47.2212775841       14.6896036648  W2        16011           0.0000000000
     45816     15272  TIP3      H2             32.9206494280       48.6856175841       15.0727836648  W2        16011           0.0000000000
     45817     15273  TIP3      OH2            27.2259094280       44.7749775841        5.2015036648  W2        16012           0.0000000000
     45818     15273  TIP3      H1             26.5144594280       45.3099475841        4.8495536648  W2        16012           0.0000000000
     45819     15273  TIP3      H2             27.9168694280       44.8301875841        4.5413936648  W2        16012           0.0000000000
     45820     15274  TIP3      OH2            27.2798294280       43.2324075841        2.2400036648  W2        16013           0.0000000000
     45821     15274  TIP3      H1             27.9808194280       43.2550975841        2.8914036648  W2        16013           0.0000000000
     45822     15274  TIP3      H2             27.5821194280       42.6043775841        1.5839336648  W2        16013           0.0000000000
     45823     15275  TIP3      OH2            34.5952994280       44.1528275841       13.4949436648  W2        16014           0.0000000000
     45824     15275  TIP3      H1             33.9427094280       44.8473875841       13.5840336648  W2        16014           0.0000000000
     45825     15275  TIP3      H2             35.0603294280       44.3629175841       12.6851036648  W2        16014           0.0000000000
     45826     15276  TIP3      OH2            30.6316794280       44.9843075841        6.1530936648  W2        16015           0.0000000000
     45827     15276  TIP3      H1             29.8997794280       45.2126775841        6.7261536648  W2        16015           0.0000000000
     45828     15276  TIP3      H2             31.0788994280       44.2705775841        6.6078436648  W2        16015           0.0000000000
     45829     15277  TIP3      OH2            30.5290294280       43.1585675841       15.2207936648  W2        16016           0.0000000000
     45830     15277  TIP3      H1             30.6089394280       43.9220075841       15.7926436648  W2        16016           0.0000000000
     45831     15277  TIP3      H2             29.9277994280       43.4378075841       14.5303036648  W2        16016           0.0000000000
     45832     15278  TIP3      OH2            22.2770494280       45.6149275841        8.0355936648  W2        16017           0.0000000000
     45833     15278  TIP3      H1             21.9465694280       45.2442675841        7.2172936648  W2        16017           0.0000000000
     45834     15278  TIP3      H2             22.8654594280       44.9443275841        8.3824236648  W2        16017           0.0000000000
     45835     15279  TIP3      OH2            23.6437994280       49.0429875841       10.7168136648  W2        16018           0.0000000000
     45836     15279  TIP3      H1             23.5489294280       48.4642975841        9.9602736648  W2        16018           0.0000000000
     45837     15279  TIP3      H2             24.3731594280       48.6715575841       11.2130936648  W2        16018           0.0000000000
     45838     15280  TIP3      OH2            22.6435994280       44.3834875841       11.6690936648  W2        16019           0.0000000000
     45839     15280  TIP3      H1             23.2088494280       44.5049075841       10.9062136648  W2        16019           0.0000000000
     45840     15280  TIP3      H2             22.9624894280       45.0209875841       12.3079436648  W2        16019           0.0000000000
     45841     15281  TIP3      OH2            28.9528194280       49.8866775841       12.4031436648  W2        16020           0.0000000000
     45842     15281  TIP3      H1             28.7124794280       50.5489875841       13.0510636648  W2        16020           0.0000000000
     45843     15281  TIP3      H2             28.7546394280       49.0521975841       12.8281036648  W2        16020           0.0000000000
     45844     15282  TIP3      OH2            23.5236694280       48.7827575841       16.3862836648  W2        16021           0.0000000000
     45845     15282  TIP3      H1             23.2124194280       49.5650775841       16.8416036648  W2        16021           0.0000000000
     45846     15282  TIP3      H2             22.8736894280       48.6296675841       15.7004836648  W2        16021           0.0000000000
     45847     15283  TIP3      OH2            29.5026294280       44.1465975841        3.8382136648  W2        16022           0.0000000000
     45848     15283  TIP3      H1             30.0821794280       44.2966275841        4.5851036648  W2        16022           0.0000000000
     45849     15283  TIP3      H2             29.9166294280       44.6173375841        3.1148536648  W2        16022           0.0000000000
     45850     15284  TIP3      OH2            20.4436594280       44.9808675841       15.6148536648  W2        16023           0.0000000000
     45851     15284  TIP3      H1             20.5139794280       45.6315475841       16.3133536648  W2        16023           0.0000000000
     45852     15284  TIP3      H2             19.5528794280       45.0836175841       15.2799436648  W2        16023           0.0000000000
     45853     15285  TIP3      OH2            27.2291194280       50.8834475841        7.2735236648  W2        16024           0.0000000000
     45854     15285  TIP3      H1             27.7028794280       51.1790775841        8.0509436648  W2        16024           0.0000000000
     45855     15285  TIP3      H2             26.6660494280       51.6216075841        7.0404836648  W2        16024           0.0000000000
     45856     15286  TIP3      OH2            21.7632594280       50.8542575841       17.1496636648  W2        16025           0.0000000000
     45857     15286  TIP3      H1             21.7707894280       50.7182275841       16.2022136648  W2        16025           0.0000000000
     45858     15286  TIP3      H2             20.8472994280       50.7370675841       17.4016636648  W2        16025           0.0000000000
     45859     15287  TIP3      OH2            33.2014694280       35.8966375841        3.6511836648  W2        16026           0.0000000000
     45860     15287  TIP3      H1             32.3015394280       36.0355375841        3.9462436648  W2        16026           0.0000000000
     45861     15287  TIP3      H2             33.4533094280       36.7280975841        3.2493536648  W2        16026           0.0000000000
     45862     15288  TIP3      OH2            21.2673194280       44.6843575841        5.6248736648  W2        16027           0.0000000000
     45863     15288  TIP3      H1             20.9754494280       45.4525275841        5.1340036648  W2        16027           0.0000000000
     45864     15288  TIP3      H2             20.5928394280       44.0249775841        5.4620136648  W2        16027           0.0000000000
     45865     15289  TIP3      OH2            34.3906094280       50.2628775841        2.0275736648  W2        16028           0.0000000000
     45866     15289  TIP3      H1             34.4639594280       51.2018975841        2.1981036648  W2        16028           0.0000000000
     45867     15289  TIP3      H2             35.2961194280       49.9577375841        1.9713036648  W2        16028           0.0000000000
     45868     15290  TIP3      OH2            17.3603294280       47.0472775841       14.4398536648  W2        16029           0.0000000000
     45869     15290  TIP3      H1             16.8591694280       47.0192175841       13.6248236648  W2        16029           0.0000000000
     45870     15290  TIP3      H2             17.3656994280       46.1415975841       14.7495836648  W2        16029           0.0000000000
     45871     15291  TIP3      OH2            17.1105994280       49.8276575841       11.3238736648  W2        16030           0.0000000000
     45872     15291  TIP3      H1             18.0566594280       49.6833575841       11.3048236648  W2        16030           0.0000000000
     45873     15291  TIP3      H2             16.9982294280       50.6119375841       11.8609936648  W2        16030           0.0000000000
     45874     15292  TIP3      OH2            35.3084494280       50.4936275841       17.0062436648  W2        16031           0.0000000000
     45875     15292  TIP3      H1             35.2591294280       49.5384375841       16.9690036648  W2        16031           0.0000000000
     45876     15292  TIP3      H2             34.4816794280       50.7611575841       17.4076236648  W2        16031           0.0000000000
     45877     15293  TIP3      OH2            26.2868494280       50.0675475841       15.8823836648  W2        16032           0.0000000000
     45878     15293  TIP3      H1             26.3743094280       50.8940075841       16.3572936648  W2        16032           0.0000000000
     45879     15293  TIP3      H2             25.4233594280       49.7379275841       16.1313136648  W2        16032           0.0000000000
     45880     15294  TIP3      OH2            26.7014294280       53.8399175841        5.6884436648  W2        16033           0.0000000000
     45881     15294  TIP3      H1             26.6260294280       53.7186375841        4.7419636648  W2        16033           0.0000000000
     45882     15294  TIP3      H2             26.7342994280       54.7891875841        5.8069036648  W2        16033           0.0000000000
     45883     15295  TIP3      OH2            20.3548094280       52.6286175841        7.4693436648  W2        16034           0.0000000000
     45884     15295  TIP3      H1             20.5068494280       52.2806575841        8.3479936648  W2        16034           0.0000000000
     45885     15295  TIP3      H2             19.5038494280       52.2723475841        7.2140636648  W2        16034           0.0000000000
     45886     15296  TIP3      OH2            29.8030294280       52.9939375841        2.6906836648  W2        16035           0.0000000000
     45887     15296  TIP3      H1             30.1778694280       52.2495475841        2.2199436648  W2        16035           0.0000000000
     45888     15296  TIP3      H2             29.8073994280       52.7239975841        3.6090136648  W2        16035           0.0000000000
     45889     15297  TIP3      OH2            29.4718394280       52.9196475841        5.4399036648  W2        16036           0.0000000000
     45890     15297  TIP3      H1             28.5368194280       53.0198375841        5.6186036648  W2        16036           0.0000000000
     45891     15297  TIP3      H2             29.7520294280       52.2102475841        6.0182236648  W2        16036           0.0000000000
     45892     15298  TIP3      OH2            32.4604294280       41.9868775841       17.4864636648  W2        16037           0.0000000000
     45893     15298  TIP3      H1             32.0531094280       42.4674375841       16.7657936648  W2        16037           0.0000000000
     45894     15298  TIP3      H2             32.5009994280       41.0814775841       17.1785436648  W2        16037           0.0000000000
     45895     15299  TIP3      OH2            19.6093794280       48.3708175841       15.4831336648  W2        16038           0.0000000000
     45896     15299  TIP3      H1             19.8255094280       48.0093775841       16.3427136648  W2        16038           0.0000000000
     45897     15299  TIP3      H2             18.7538494280       47.9961975841       15.2734836648  W2        16038           0.0000000000
     45898     15300  TIP3      OH2            22.2281794280       36.8408675841       11.4785536648  W2        16039           0.0000000000
     45899     15300  TIP3      H1             21.3665494280       36.7536875841       11.0708436648  W2        16039           0.0000000000
     45900     15300  TIP3      H2             22.2057494280       37.6968775841       11.9063136648  W2        16039           0.0000000000
     45901     15301  TIP3      OH2            26.8909594280       36.5629075841       14.8532536648  W2        16040           0.0000000000
     45902     15301  TIP3      H1             27.3112694280       36.1476175841       15.6063136648  W2        16040           0.0000000000
     45903     15301  TIP3      H2             25.9579194280       36.3842375841       14.9704536648  W2        16040           0.0000000000
     45904     15302  TIP3      OH2            30.2174494280       40.3184275841       15.7067036648  W2        16041           0.0000000000
     45905     15302  TIP3      H1             29.7033994280       40.1926475841       16.5043036648  W2        16041           0.0000000000
     45906     15302  TIP3      H2             30.0619194280       41.2307375841       15.4623236648  W2        16041           0.0000000000
     45907     15303  TIP3      OH2            30.9799394280       45.1794275841        1.4680036648  W2        16042           0.0000000000
     45908     15303  TIP3      H1             31.0220194280       44.9568175841        0.5380036648  W2        16042           0.0000000000
     45909     15303  TIP3      H2             31.8291494280       45.5781375841        1.6579936648  W2        16042           0.0000000000
     45910     15304  TIP3      OH2            26.5526894280       39.0552475841        2.1383336648  W2        16043           0.0000000000
     45911     15304  TIP3      H1             26.2991694280       39.0744075841        3.0611436648  W2        16043           0.0000000000
     45912     15304  TIP3      H2             26.2958994280       38.1837875841        1.8369536648  W2        16043           0.0000000000
     45913     15305  TIP3      OH2            22.3191894280       41.8063175841       12.5735736648  W2        16044           0.0000000000
     45914     15305  TIP3      H1             21.6773994280       41.7660475841       13.2825836648  W2        16044           0.0000000000
     45915     15305  TIP3      H2             22.3563894280       42.7327875841       12.3358736648  W2        16044           0.0000000000
     45916     15306  TIP3      OH2            22.3160994280       42.0273275841        7.4855736648  W2        16045           0.0000000000
     45917     15306  TIP3      H1             21.4233894280       41.6869375841        7.4269536648  W2        16045           0.0000000000
     45918     15306  TIP3      H2             22.7667594280       41.6504175841        6.7298936648  W2        16045           0.0000000000
     45919     15307  TIP3      OH2            27.8516494280       42.4433575841        6.3026536648  W2        16046           0.0000000000
     45920     15307  TIP3      H1             27.4426794280       43.2582175841        6.0111336648  W2        16046           0.0000000000
     45921     15307  TIP3      H2             28.5722694280       42.3033675841        5.6883636648  W2        16046           0.0000000000
     45922     15308  TIP3      OH2            26.9538094280       42.6189975841       17.7907236648  W2        16047           0.0000000000
     45923     15308  TIP3      H1             26.3911894280       41.9141575841       18.1115036648  W2        16047           0.0000000000
     45924     15308  TIP3      H2             27.7801494280       42.4981875841       18.2584836648  W2        16047           0.0000000000
     45925     15309  TIP3      OH2            28.8564194280       41.8893975841        9.1166236648  W2        16048           0.0000000000
     45926     15309  TIP3      H1             28.6608694280       42.4950775841        8.4016836648  W2        16048           0.0000000000
     45927     15309  TIP3      H2             29.0376794280       41.0559175841        8.6822536648  W2        16048           0.0000000000
     45928     15310  TIP3      OH2            20.0692394280       42.1266675841       14.4407736648  W2        16049           0.0000000000
     45929     15310  TIP3      H1             20.0311794280       42.5268275841       15.3094836648  W2        16049           0.0000000000
     45930     15310  TIP3      H2             19.5783494280       41.3099075841       14.5310636648  W2        16049           0.0000000000
     45931     15311  TIP3      OH2            23.4349794280       39.5008975841        1.2393736648  W2        16050           0.0000000000
     45932     15311  TIP3      H1             23.0040494280       39.0559075841        1.9691136648  W2        16050           0.0000000000
     45933     15311  TIP3      H2             22.7168494280       39.8725275841        0.7271236648  W2        16050           0.0000000000
     45934     15312  TIP3      OH2            16.6773194280       39.2428475841        8.2912436648  W2        16051           0.0000000000
     45935     15312  TIP3      H1             17.3080894280       39.2140575841        9.0106336648  W2        16051           0.0000000000
     45936     15312  TIP3      H2             17.1267494280       38.8177175841        7.5608336648  W2        16051           0.0000000000
     45937     15313  TIP3      OH2            17.9515294280       39.9890475841        3.7152836648  W2        16052           0.0000000000
     45938     15313  TIP3      H1             18.4256994280       40.5800375841        3.1303736648  W2        16052           0.0000000000
     45939     15313  TIP3      H2             17.2341694280       40.5193375841        4.0622936648  W2        16052           0.0000000000
     45940     15314  TIP3      OH2            28.1203394280       43.5275275841       13.7878636648  W2        16053           0.0000000000
     45941     15314  TIP3      H1             28.4438194280       42.8964975841       13.1449136648  W2        16053           0.0000000000
     45942     15314  TIP3      H2             27.6802694280       42.9927475841       14.4486036648  W2        16053           0.0000000000
     45943     15315  TIP3      OH2            24.8976294280       39.4550775841        8.5719836648  W2        16054           0.0000000000
     45944     15315  TIP3      H1             23.9867394280       39.5117575841        8.8605836648  W2        16054           0.0000000000
     45945     15315  TIP3      H2             25.4029194280       39.3946275841        9.3827036648  W2        16054           0.0000000000
     45946     15316  TIP3      OH2            19.7259694280       41.0837075841        7.3987436648  W2        16055           0.0000000000
     45947     15316  TIP3      H1             18.8367694280       41.1832575841        7.0587036648  W2        16055           0.0000000000
     45948     15316  TIP3      H2             20.0224594280       40.2420075841        7.0525336648  W2        16055           0.0000000000
     45949     15317  TIP3      OH2            23.3791494280       41.0839675841        5.0552036648  W2        16056           0.0000000000
     45950     15317  TIP3      H1             24.3106994280       41.2129675841        5.2335136648  W2        16056           0.0000000000
     45951     15317  TIP3      H2             23.1641794280       41.7533975841        4.4056736648  W2        16056           0.0000000000
     45952     15318  TIP3      OH2            29.3028194280       38.6897075841       11.8361636648  W2        16057           0.0000000000
     45953     15318  TIP3      H1             28.6259794280       38.8210175841       12.5001336648  W2        16057           0.0000000000
     45954     15318  TIP3      H2             28.8173094280       38.5346575841       11.0259336648  W2        16057           0.0000000000
     45955     15319  TIP3      OH2            22.0531694280       42.2781875841        2.6218136648  W2        16058           0.0000000000
     45956     15319  TIP3      H1             21.5106794280       41.8985675841        1.9305736648  W2        16058           0.0000000000
     45957     15319  TIP3      H2             22.8866594280       42.4726575841        2.1932236648  W2        16058           0.0000000000
     45958     15320  TIP3      OH2            20.1883094280       46.8353775841       17.7209736648  W2        16060           0.0000000000
     45959     15320  TIP3      H1             20.9205494280       47.0899675841       18.2824236648  W2        16060           0.0000000000
     45960     15320  TIP3      H2             19.4081794280       47.0399175841       18.2365136648  W2        16060           0.0000000000
     45961     15321  TIP3      OH2            26.2175994280       42.2423775841       10.4589436648  W2        16061           0.0000000000
     45962     15321  TIP3      H1             26.7819394280       41.6960375841        9.9119036648  W2        16061           0.0000000000
     45963     15321  TIP3      H2             26.0699394280       41.7205675841       11.2477036648  W2        16061           0.0000000000
     45964     15322  TIP3      OH2            21.2195694280       38.3789875841        6.8774236648  W2        16062           0.0000000000
     45965     15322  TIP3      H1             20.9025194280       37.4765175841        6.8419636648  W2        16062           0.0000000000
     45966     15322  TIP3      H2             22.0009794280       38.3807275841        6.3245836648  W2        16062           0.0000000000
     45967     15323  TIP3      OH2            24.8441894280       40.6309875841       12.8729836648  W2        16063           0.0000000000
     45968     15323  TIP3      H1             24.0087194280       41.0849375841       12.9832236648  W2        16063           0.0000000000
     45969     15323  TIP3      H2             25.3682494280       40.9068375841       13.6249736648  W2        16063           0.0000000000
     45970     15324  TIP3      OH2            25.3884494280       46.8437575841        4.5576236648  W2        16064           0.0000000000
     45971     15324  TIP3      H1             24.6435494280       46.3362875841        4.2354136648  W2        16064           0.0000000000
     45972     15324  TIP3      H2             25.2541694280       46.8925575841        5.5041036648  W2        16064           0.0000000000
     45973     15325  TIP3      OH2            32.5383394280       45.9765775841       13.3443836648  W2        16065           0.0000000000
     45974     15325  TIP3      H1             33.1802194280       46.4332075841       12.8006036648  W2        16065           0.0000000000
     45975     15325  TIP3      H2             31.7080294280       46.0898175841       12.8817936648  W2        16065           0.0000000000
     45976     15326  TIP3      OH2            29.2861294280       39.6577475841        2.7568836648  W2        16066           0.0000000000
     45977     15326  TIP3      H1             28.3475494280       39.7693075841        2.6057636648  W2        16066           0.0000000000
     45978     15326  TIP3      H2             29.5833394280       40.5144375841        3.0634536648  W2        16066           0.0000000000
     45979     15327  TIP3      OH2            26.9076594280       47.0280875841       15.7945336648  W2        16067           0.0000000000
     45980     15327  TIP3      H1             26.5622694280       46.6463275841       16.6014936648  W2        16067           0.0000000000
     45981     15327  TIP3      H2             26.7076694280       47.9614475841       15.8658236648  W2        16067           0.0000000000
     45982     15328  TIP3      OH2            30.0044794280       41.5250175841        4.4176236648  W2        16068           0.0000000000
     45983     15328  TIP3      H1             30.8963794280       41.3875175841        4.7367436648  W2        16068           0.0000000000
     45984     15328  TIP3      H2             30.0608394280       42.3156275841        3.8809736648  W2        16068           0.0000000000
     45985     15329  TIP3      OH2            20.5132794280       46.1387575841       10.3274136648  W2        16069           0.0000000000
     45986     15329  TIP3      H1             21.2579994280       46.1363275841        9.7260636648  W2        16069           0.0000000000
     45987     15329  TIP3      H2             20.5909394280       45.3151375841       10.8089236648  W2        16069           0.0000000000
     45988     15330  TIP3      OH2            27.5138594280       48.3021875841        3.5830836648  W2        16070           0.0000000000
     45989     15330  TIP3      H1             27.2186994280       49.1289775841        3.9645636648  W2        16070           0.0000000000
     45990     15330  TIP3      H2             26.8108594280       47.6828775841        3.7792236648  W2        16070           0.0000000000
     45991     15331  TIP3      OH2            17.5212494280       44.5994475841       15.6422636648  W2        16071           0.0000000000
     45992     15331  TIP3      H1             17.7441094280       44.1814075841       16.4740136648  W2        16071           0.0000000000
     45993     15331  TIP3      H2             16.9192594280       43.9869475841       15.2195436648  W2        16071           0.0000000000
     45994     15332  TIP3      OH2            29.1580194280       49.4896375841       15.7450336648  W2        16073           0.0000000000
     45995     15332  TIP3      H1             28.2574494280       49.6728975841       15.4774236648  W2        16073           0.0000000000
     45996     15332  TIP3      H2             29.1921294280       49.7485675841       16.6659136648  W2        16073           0.0000000000
     45997     15333  TIP3      OH2            34.8893494280       41.7344275841        4.1122936648  W2        16074           0.0000000000
     45998     15333  TIP3      H1             34.3349794280       41.3382275841        3.4400436648  W2        16074           0.0000000000
     45999     15333  TIP3      H2             34.9897094280       42.6449475841        3.8346236648  W2        16074           0.0000000000
     46000     15334  TIP3      OH2            34.8525494280       47.5345975841       16.9494436648  W2        16075           0.0000000000
     46001     15334  TIP3      H1             34.0013994280       47.7729775841       16.5820836648  W2        16075           0.0000000000
     46002     15334  TIP3      H2             35.4428894280       47.5179175841       16.1961536648  W2        16075           0.0000000000
     46003     15335  TIP3      OH2            33.1845194280       50.5204675841        4.5775036648  W2        16076           0.0000000000
     46004     15335  TIP3      H1             32.8116294280       49.6948475841        4.8865636648  W2        16076           0.0000000000
     46005     15335  TIP3      H2             33.4618694280       50.3374075841        3.6798436648  W2        16076           0.0000000000
     46006     15336  TIP3      OH2            30.3449094280       45.3284175841       11.5986936648  W2        16077           0.0000000000
     46007     15336  TIP3      H1             29.4165994280       45.0966075841       11.5716236648  W2        16077           0.0000000000
     46008     15336  TIP3      H2             30.7960194280       44.5513975841       11.2685736648  W2        16077           0.0000000000
     46009     15337  TIP3      OH2            22.8882194280       49.6565775841        7.7315636648  W2        16078           0.0000000000
     46010     15337  TIP3      H1             23.4154394280       50.4300175841        7.5314436648  W2        16078           0.0000000000
     46011     15337  TIP3      H2             22.0080694280       49.8814975841        7.4299636648  W2        16078           0.0000000000
     46012     15338  TIP3      OH2            18.6429894280       44.5189875841        2.3188036648  W2        16079           0.0000000000
     46013     15338  TIP3      H1             19.2589794280       45.1457075841        2.6982836648  W2        16079           0.0000000000
     46014     15338  TIP3      H2             17.7812494280       44.8349675841        2.5904536648  W2        16079           0.0000000000
     46015     15339  TIP3      OH2            24.3154494280       47.3195675841        7.3079936648  W2        16080           0.0000000000
     46016     15339  TIP3      H1             24.0744494280       48.2450075841        7.3495236648  W2        16080           0.0000000000
     46017     15339  TIP3      H2             23.5748094280       46.8606975841        7.7043836648  W2        16080           0.0000000000
     46018     15340  TIP3      OH2            24.8301094280       51.4689275841       13.6231036648  W2        16081           0.0000000000
     46019     15340  TIP3      H1             25.1925794280       52.3234875841       13.3895436648  W2        16081           0.0000000000
     46020     15340  TIP3      H2             25.3616294280       51.1770875841       14.3637336648  W2        16081           0.0000000000
     46021     15341  TIP3      OH2            22.9985294280       52.3413275841        6.8532136648  W2        16082           0.0000000000
     46022     15341  TIP3      H1             22.0485794280       52.4470675841        6.9045436648  W2        16082           0.0000000000
     46023     15341  TIP3      H2             23.3503394280       53.1620675841        7.1979636648  W2        16082           0.0000000000
     46024     15342  TIP3      OH2            28.3741894280       47.5679975841       13.3236636648  W2        16083           0.0000000000
     46025     15342  TIP3      H1             27.9483194280       47.3401675841       14.1500636648  W2        16083           0.0000000000
     46026     15342  TIP3      H2             28.9547694280       46.8291775841       13.1411936648  W2        16083           0.0000000000
     46027     15343  TIP3      OH2            30.5770794280       48.4970475841        2.3975636648  W2        16084           0.0000000000
     46028     15343  TIP3      H1             30.9303894280       48.1170275841        3.2019136648  W2        16084           0.0000000000
     46029     15343  TIP3      H2             29.6284294280       48.4035275841        2.4844936648  W2        16084           0.0000000000
     46030     15344  TIP3      OH2            31.0326094280       52.1199475841       15.7931436648  W2        16085           0.0000000000
     46031     15344  TIP3      H1             30.4309294280       51.5642375841       15.2977736648  W2        16085           0.0000000000
     46032     15344  TIP3      H2             31.3139794280       52.7869275841       15.1668836648  W2        16085           0.0000000000
     46033     15345  TIP3      OH2            35.0805194280       52.9762975841        2.5985836648  W2        16086           0.0000000000
     46034     15345  TIP3      H1             35.8243094280       53.5623475841        2.4587436648  W2        16086           0.0000000000
     46035     15345  TIP3      H2             34.3863294280       53.5448775841        2.9318236648  W2        16086           0.0000000000
     46036     15346  TIP3      OH2            19.1551994280       39.3527175841       15.2004036648  W2        16087           0.0000000000
     46037     15346  TIP3      H1             18.2624294280       39.6912575841       15.1328036648  W2        16087           0.0000000000
     46038     15346  TIP3      H2             19.0564794280       38.4973275841       15.6184836648  W2        16087           0.0000000000
     46039     15347  TIP3      OH2            31.4430094280       47.1692475841        4.6243536648  W2        16088           0.0000000000
     46040     15347  TIP3      H1             31.1657694280       46.4411775841        5.1804636648  W2        16088           0.0000000000
     46041     15347  TIP3      H2             32.3703094280       47.2884475841        4.8296136648  W2        16088           0.0000000000
     46042     15348  TIP3      OH2            18.8063994280       51.1571575841       13.6353436648  W2        16089           0.0000000000
     46043     15348  TIP3      H1             19.0234294280       50.2253975841       13.6043136648  W2        16089           0.0000000000
     46044     15348  TIP3      H2             19.0527494280       51.4316575841       14.5186236648  W2        16089           0.0000000000
     46045     15349  TIP3      OH2            24.6678594280       49.6086575841        0.8445636648  W2        16090           0.0000000000
     46046     15349  TIP3      H1             24.9068394280       48.8604675841        0.2974536648  W2        16090           0.0000000000
     46047     15349  TIP3      H2             24.3989894280       49.2208275841        1.6773436648  W2        16090           0.0000000000
     46048     15350  TIP3      OH2            23.6049194280       49.1790375841        3.3008236648  W2        16091           0.0000000000
     46049     15350  TIP3      H1             23.7517194280       48.6590175841        4.0909136648  W2        16091           0.0000000000
     46050     15350  TIP3      H2             23.6020894280       50.0857975841        3.6074136648  W2        16091           0.0000000000
     46051     15351  TIP3      OH2            20.0580294280       46.4313675841        3.8113636648  W2        16092           0.0000000000
     46052     15351  TIP3      H1             19.3719594280       46.7836175841        4.3783336648  W2        16092           0.0000000000
     46053     15351  TIP3      H2             20.5808194280       47.1943275841        3.5647936648  W2        16092           0.0000000000
     46054     15352  TIP3      OH2            27.8895394280       39.0937475841       14.0902636648  W2        16093           0.0000000000
     46055     15352  TIP3      H1             28.5883294280       39.1676175841       14.7402336648  W2        16093           0.0000000000
     46056     15352  TIP3      H2             27.5086794280       38.2292475841       14.2445536648  W2        16093           0.0000000000
     46057     15353  TIP3      OH2            28.6740294280       38.7459175841        5.1874936648  W2        16094           0.0000000000
     46058     15353  TIP3      H1             28.8938594280       39.2174575841        4.3840336648  W2        16094           0.0000000000
     46059     15353  TIP3      H2             29.2324294280       39.1401775841        5.8575536648  W2        16094           0.0000000000
     46060     15354  TIP3      OH2            26.3426394280       50.8763975841        4.0502436648  W2        16095           0.0000000000
     46061     15354  TIP3      H1             25.5262494280       51.3733675841        4.1026736648  W2        16095           0.0000000000
     46062     15354  TIP3      H2             26.8722694280       51.3517475841        3.4101236648  W2        16095           0.0000000000
     46063     15355  TIP3      OH2            25.8740194280       40.4737975841        6.0223336648  W2        16096           0.0000000000
     46064     15355  TIP3      H1             26.6862794280       40.9781175841        6.0685036648  W2        16096           0.0000000000
     46065     15355  TIP3      H2             25.6293194280       40.3287675841        6.9362936648  W2        16096           0.0000000000
     46066     15356  TIP3      OH2            26.4096594280       41.4600675841       15.2069936648  W2        16097           0.0000000000
     46067     15356  TIP3      H1             26.5286894280       42.0336075841       15.9640336648  W2        16097           0.0000000000
     46068     15356  TIP3      H2             27.0651194280       40.7720075841       15.3217736648  W2        16097           0.0000000000
     46069     15357  TIP3      OH2            26.7576894280       37.5550975841        6.9604436648  W2        16098           0.0000000000
     46070     15357  TIP3      H1             26.4110394280       38.1721575841        7.6048736648  W2        16098           0.0000000000
     46071     15357  TIP3      H2             27.4163794280       38.0556675841        6.4789936648  W2        16098           0.0000000000
     46072     15358  TIP3      OH2            23.6809494280       51.9201175841        4.0319336648  W2        16099           0.0000000000
     46073     15358  TIP3      H1             23.8418194280       52.7198675841        3.5311936648  W2        16099           0.0000000000
     46074     15358  TIP3      H2             23.4837294280       52.2267175841        4.9169936648  W2        16099           0.0000000000
     46075     15359  TIP3      OH2            22.4153894280       38.6180375841        3.6476936648  W2        16100           0.0000000000
     46076     15359  TIP3      H1             22.3318694280       39.5063475841        3.9943336648  W2        16100           0.0000000000
     46077     15359  TIP3      H2             23.3054194280       38.3527075841        3.8793736648  W2        16100           0.0000000000
     46078     15360  TIP3      OH2            32.6142394280       39.3670975841       16.0419636648  W2        16101           0.0000000000
     46079     15360  TIP3      H1             31.6978194280       39.6292675841       15.9543336648  W2        16101           0.0000000000
     46080     15360  TIP3      H2             32.9497394280       39.3639975841       15.1454936648  W2        16101           0.0000000000
     46081     15361  TIP3      OH2            31.2163394280       43.1171975841       10.1376936648  W2        16102           0.0000000000
     46082     15361  TIP3      H1             30.4187794280       42.7022175841        9.8091936648  W2        16102           0.0000000000
     46083     15361  TIP3      H2             31.6614494280       42.4265675841       10.6287436648  W2        16102           0.0000000000
     46084     15362  TIP3      OH2            20.6739194280       49.0452575841        2.7081436648  W2        16103           0.0000000000
     46085     15362  TIP3      H1             21.2660694280       49.7447375841        2.9843836648  W2        16103           0.0000000000
     46086     15362  TIP3      H2             21.1332194280       48.6122075841        1.9886036648  W2        16103           0.0000000000
     46087     15363  TIP3      OH2            18.9898394280       41.7095575841        1.8240836648  W2        16104           0.0000000000
     46088     15363  TIP3      H1             18.9450994280       42.6488675841        2.0027836648  W2        16104           0.0000000000
     46089     15363  TIP3      H2             18.1021594280       41.4740475841        1.5542936648  W2        16104           0.0000000000
     46090     15364  TIP3      OH2            32.3027994280       52.3734475841       11.7600436648  W2        16105           0.0000000000
     46091     15364  TIP3      H1             32.1472294280       53.0518875841       11.1029736648  W2        16105           0.0000000000
     46092     15364  TIP3      H2             33.2354394280       52.4453775841       11.9631036648  W2        16105           0.0000000000
     46093     15365  TIP3      OH2            19.7980394280       36.4912175841       10.4971836648  W2        16106           0.0000000000
     46094     15365  TIP3      H1             19.5690194280       36.5504675841        9.5696836648  W2        16106           0.0000000000
     46095     15365  TIP3      H2             19.3553794280       35.6997675841       10.8035936648  W2        16106           0.0000000000
     46096     15366  TIP3      OH2            18.7283694280       50.4319275841        6.6577636648  W2        16107           0.0000000000
     46097     15366  TIP3      H1             17.8962294280       50.9041975841        6.6849036648  W2        16107           0.0000000000
     46098     15366  TIP3      H2             19.2741994280       50.9416875841        6.0590736648  W2        16107           0.0000000000
     46099     15367  TIP3      OH2            26.7060394280       51.4717975841        0.9831636648  W2        16110           0.0000000000
     46100     15367  TIP3      H1             26.0621394280       50.8406575841        1.3045336648  W2        16110           0.0000000000
     46101     15367  TIP3      H2             27.4678694280       50.9405975841        0.7515136648  W2        16110           0.0000000000
     46102     15368  TIP3      OH2            31.3103294280       51.2887875841        1.2169636648  W2        16112           0.0000000000
     46103     15368  TIP3      H1             31.5933694280       50.4943075841        1.6696536648  W2        16112           0.0000000000
     46104     15368  TIP3      H2             32.0501194280       51.5218875841        0.6560736648  W2        16112           0.0000000000
     46105     15369  TIP3      OH2            22.2650594280       47.1982775841        1.0744536648  W2        16114           0.0000000000
     46106     15369  TIP3      H1             22.3294694280       46.4042375841        1.6050936648  W2        16114           0.0000000000
     46107     15369  TIP3      H2             22.9179794280       47.0795575841        0.3846536648  W2        16114           0.0000000000
     46108     15370  TIP3      OH2            27.6173994280       48.2454475841        0.8102536648  W2        16116           0.0000000000
     46109     15370  TIP3      H1             27.3488094280       48.4256575841        1.7111436648  W2        16116           0.0000000000
     46110     15370  TIP3      H2             27.4109594280       47.3200675841        0.6788336648  W2        16116           0.0000000000
     46111     15371  TIP3      OH2            30.3138194280       46.7402475841       15.7578636648  W2        16117           0.0000000000
     46112     15371  TIP3      H1             31.0592994280       47.3286175841       15.6382636648  W2        16117           0.0000000000
     46113     15371  TIP3      H2             29.5564994280       47.3222175841       15.8211736648  W2        16117           0.0000000000
     46114     15372  TIP3      OH2            23.4144394280       45.1708975841        3.3802536648  W2        16119           0.0000000000
     46115     15372  TIP3      H1             22.9546394280       44.6867275841        4.0661036648  W2        16119           0.0000000000
     46116     15372  TIP3      H2             23.6693094280       44.5024375841        2.7443036648  W2        16119           0.0000000000
     46117     15373  TIP3      OH2            22.7033694280       43.0636075841       15.7362136648  W2        16120           0.0000000000
     46118     15373  TIP3      H1             22.0849794280       43.7382675841       16.0166836648  W2        16120           0.0000000000
     46119     15373  TIP3      H2             23.0474894280       43.3849975841       14.9028336648  W2        16120           0.0000000000
     46120     15374  TIP3      OH2            24.4854794280       43.4140775841        1.6425736648  W2        16121           0.0000000000
     46121     15374  TIP3      H1             24.3049794280       43.2591975841        0.7154036648  W2        16121           0.0000000000
     46122     15374  TIP3      H2             25.4355294280       43.5219475841        1.6873636648  W2        16121           0.0000000000
     46123     15375  TIP3      OH2            33.8753094280       45.7684975841        1.0883836648  W2        16123           0.0000000000
     46124     15375  TIP3      H1             33.6017894280       45.3440475841        0.2752136648  W2        16123           0.0000000000
     46125     15375  TIP3      H2             33.9147194280       46.6999475841        0.8714236648  W2        16123           0.0000000000
     46126     15376  TIP3      OH2            23.0427394280       40.4186875841       16.8185236648  W2        16124           0.0000000000
     46127     15376  TIP3      H1             23.1928294280       39.6898175841       16.2164936648  W2        16124           0.0000000000
     46128     15376  TIP3      H2             23.0449794280       41.1958575841       16.2597436648  W2        16124           0.0000000000
     46129     15377  TIP3      OH2            23.4553094280       38.7882675841       14.3112636648  W2        16125           0.0000000000
     46130     15377  TIP3      H1             23.9910594280       39.2399375841       13.6591936648  W2        16125           0.0000000000
     46131     15377  TIP3      H2             22.6032694280       38.6802475841       13.8886736648  W2        16125           0.0000000000
     46132     15378  TIP3      OH2            25.0371494280       44.2278875841       14.5507836648  W2        16126           0.0000000000
     46133     15378  TIP3      H1             25.7876294280       44.0716375841       13.9775636648  W2        16126           0.0000000000
     46134     15378  TIP3      H2             24.6979794280       45.0795475841       14.2753336648  W2        16126           0.0000000000
     46135     15379  TIP3      OH2            30.7694894280       44.8315875841       17.6565836648  W2        16128           0.0000000000
     46136     15379  TIP3      H1             30.4879894280       45.5410475841       17.0789636648  W2        16128           0.0000000000
     46137     15379  TIP3      H2             31.7119194280       44.7588875841       17.5057036648  W2        16128           0.0000000000
     46138     15380  TIP3      OH2            24.2608594280       36.2448375841       14.7426236648  W2        16130           0.0000000000
     46139     15380  TIP3      H1             24.1628194280       37.1911575841       14.6372436648  W2        16130           0.0000000000
     46140     15380  TIP3      H2             23.5184794280       35.8722175841       14.2669736648  W2        16130           0.0000000000
     46141     15381  TIP3      OH2            28.2405694280       39.6937275841       17.3818136648  W2        16132           0.0000000000
     46142     15381  TIP3      H1             27.2931094280       39.7256975841       17.5141436648  W2        16132           0.0000000000
     46143     15381  TIP3      H2             28.5532394280       39.0684375841       18.0356336648  W2        16132           0.0000000000
     46144     15382  TIP3      OH2            24.4826694280       35.5385775841       17.4139036648  W2        16135           0.0000000000
     46145     15382  TIP3      H1             25.1945094280       34.8987975841       17.3998136648  W2        16135           0.0000000000
     46146     15382  TIP3      H2             24.3817094280       35.8054075841       16.5002136648  W2        16135           0.0000000000
     46147     15383  TIP3      OH2            24.3826494280       54.1044475841        2.6439336648  W2        16137           0.0000000000
     46148     15383  TIP3      H1             25.3157194280       54.2623175841        2.7877736648  W2        16137           0.0000000000
     46149     15383  TIP3      H2             24.1185294280       54.7797475841        2.0190836648  W2        16137           0.0000000000
     46150     15384  TIP3      OH2            17.9511394280       48.7408275841        2.1267436648  W2        16138           0.0000000000
     46151     15384  TIP3      H1             18.8650594280       48.8197175841        2.4001336648  W2        16138           0.0000000000
     46152     15384  TIP3      H2             17.9584494280       48.0537875841        1.4603036648  W2        16138           0.0000000000
     46153     15385  TIP3      OH2            16.6001994280       54.1336775841        7.2041336648  W2        16139           0.0000000000
     46154     15385  TIP3      H1             15.9529094280       53.6718475841        6.6712536648  W2        16139           0.0000000000
     46155     15385  TIP3      H2             16.9546594280       53.4620075841        7.7867536648  W2        16139           0.0000000000
     46156     15386  TIP3      OH2            17.4701194280       52.2143775841        9.0087536648  W2        16140           0.0000000000
     46157     15386  TIP3      H1             17.1357994280       51.3341075841        9.1807736648  W2        16140           0.0000000000
     46158     15386  TIP3      H2             17.6923594280       52.5598775841        9.8733136648  W2        16140           0.0000000000
     46159     15387  TIP3      OH2            35.0185994280       53.0240175841       11.9892336648  W2        16141           0.0000000000
     46160     15387  TIP3      H1             34.9972694280       53.2088575841       12.9281736648  W2        16141           0.0000000000
     46161     15387  TIP3      H2             35.7092194280       53.5924175841       11.6483736648  W2        16141           0.0000000000
     46162     15388  TIP3      OH2            34.5818894280       52.5911275841       14.9111436648  W2        16142           0.0000000000
     46163     15388  TIP3      H1             34.0947594280       51.8555375841       14.5398836648  W2        16142           0.0000000000
     46164     15388  TIP3      H2             35.1311594280       52.1975175841       15.5890836648  W2        16142           0.0000000000
     46165     15389  TIP3      OH2            34.3335894280       46.6373075841        5.0634236648  W2        16144           0.0000000000
     46166     15389  TIP3      H1             35.1837294280       47.0583975841        5.1905836648  W2        16144           0.0000000000
     46167     15389  TIP3      H2             34.3390994280       45.8973175841        5.6705636648  W2        16144           0.0000000000
     46168     15390  TIP3      OH2            34.7281494280       44.6910475841        6.8869936648  W2        16145           0.0000000000
     46169     15390  TIP3      H1             34.0016094280       44.2113075841        7.2847536648  W2        16145           0.0000000000
     46170     15390  TIP3      H2             35.3094794280       44.8965175841        7.6191536648  W2        16145           0.0000000000
     46171     15391  TIP3      OH2            34.4872694280       47.4757975841       11.8347536648  W2        16146           0.0000000000
     46172     15391  TIP3      H1             35.3206894280       47.0977975841       11.5541136648  W2        16146           0.0000000000
     46173     15391  TIP3      H2             34.5992994280       48.4189175841       11.7156636648  W2        16146           0.0000000000
     46174     15392  TIP3      OH2            32.9734994280       50.3535475841       14.1415936648  W2        16147           0.0000000000
     46175     15392  TIP3      H1             32.3260294280       50.6786975841       14.7671136648  W2        16147           0.0000000000
     46176     15392  TIP3      H2             32.4558994280       49.9133175841       13.4674236648  W2        16147           0.0000000000
     46177     15393  TIP3      OH2            34.9964594280       44.5918975841        3.2781236648  W2        16148           0.0000000000
     46178     15393  TIP3      H1             34.4745694280       44.9483075841        2.5592136648  W2        16148           0.0000000000
     46179     15393  TIP3      H2             34.9633794280       45.2666775841        3.9562136648  W2        16148           0.0000000000
     46180     15394  TIP3      OH2            33.3453594280       41.8314575841        1.8288336648  W2        16149           0.0000000000
     46181     15394  TIP3      H1             33.4417994280       42.4981575841        1.1488036648  W2        16149           0.0000000000
     46182     15394  TIP3      H2             33.2053194280       41.0160875841        1.3473836648  W2        16149           0.0000000000
     46183     15395  TIP3      OH2            32.5148294280       43.2116975841        7.4498636648  W2        16150           0.0000000000
     46184     15395  TIP3      H1             32.3647094280       42.2665575841        7.4296436648  W2        16150           0.0000000000
     46185     15395  TIP3      H2             32.1612794280       43.4928375841        8.2937736648  W2        16150           0.0000000000
     46186     15396  TIP3      OH2            17.5500694280       45.2899175841       11.4602436648  W2        16151           0.0000000000
     46187     15396  TIP3      H1             17.7343594280       45.2080875841       10.5245336648  W2        16151           0.0000000000
     46188     15396  TIP3      H2             18.3993594280       45.1656175841       11.8838836648  W2        16151           0.0000000000
     46189     15397  TIP3      OH2            33.3711194280       45.1820275841       17.0886936648  W2        16152           0.0000000000
     46190     15397  TIP3      H1             33.9538494280       44.4472575841       17.2804136648  W2        16152           0.0000000000
     46191     15397  TIP3      H2             33.9350494280       45.9540575841       17.1352736648  W2        16152           0.0000000000
     46192     15398  TIP3      OH2            34.8678294280       43.0846075841       17.7732336648  W2        16153           0.0000000000
     46193     15398  TIP3      H1             34.0044994280       42.7058175841       17.6077036648  W2        16153           0.0000000000
     46194     15398  TIP3      H2             35.4721994280       42.3460875841       17.6988136648  W2        16153           0.0000000000
     46195     15399  TIP3      OH2            32.5927394280       39.2394375841        0.9463836648  W2        16154           0.0000000000
     46196     15399  TIP3      H1             33.2033194280       38.8681175841        1.5832036648  W2        16154           0.0000000000
     46197     15399  TIP3      H2             31.7558894280       38.8181275841        1.1423836648  W2        16154           0.0000000000
     46198     15400  TIP3      OH2            32.2253094280       40.7942775841        5.9123736648  W2        16155           0.0000000000
     46199     15400  TIP3      H1             32.5050194280       39.8873175841        6.0365436648  W2        16155           0.0000000000
     46200     15400  TIP3      H2             32.9844794280       41.2284275841        5.5232936648  W2        16155           0.0000000000
     46201     15401  TIP3      OH2            32.8371394280       41.3760175841       11.3482636648  W2        16156           0.0000000000
     46202     15401  TIP3      H1             33.7699394280       41.5880075841       11.3138636648  W2        16156           0.0000000000
     46203     15401  TIP3      H2             32.6018894280       41.4772275841       12.2705636648  W2        16156           0.0000000000
     46204     15402  TIP3      OH2            32.8663294280       42.1125475841       14.1242036648  W2        16157           0.0000000000
     46205     15402  TIP3      H1             32.0234594280       42.3805875841       14.4901836648  W2        16157           0.0000000000
     46206     15402  TIP3      H2             33.3087594280       42.9347375841       13.9133136648  W2        16157           0.0000000000
     46207     15403  TIP3      OH2            17.1475494280       40.5604175841       17.6011236648  W2        16158           0.0000000000
     46208     15403  TIP3      H1             18.0670394280       40.4382475841       17.8374336648  W2        16158           0.0000000000
     46209     15403  TIP3      H2             16.6979994280       39.8103875841       17.9904736648  W2        16158           0.0000000000
     46210     15404  TIP3      OH2            32.8387894280       38.0572075841        5.9605736648  W2        16160           0.0000000000
     46211     15404  TIP3      H1             33.0212894280       37.6083575841        6.7860736648  W2        16160           0.0000000000
     46212     15404  TIP3      H2             32.2390794280       37.4726475841        5.4970336648  W2        16160           0.0000000000
     46213     15405  TIP3      OH2            18.3687994280       38.8725775841       10.4924136648  W2        16161           0.0000000000
     46214     15405  TIP3      H1             18.8139594280       38.0808275841       10.7943836648  W2        16161           0.0000000000
     46215     15405  TIP3      H2             18.8350994280       39.5890975841       10.9229736648  W2        16161           0.0000000000
     46216     15406  TIP3      OH2            16.6728294280       41.8718775841       11.5614336648  W2        16162           0.0000000000
     46217     15406  TIP3      H1             17.1648094280       41.6509275841       10.7706336648  W2        16162           0.0000000000
     46218     15406  TIP3      H2             17.0349194280       42.7122175841       11.8423836648  W2        16162           0.0000000000
     46219     15407  TIP3      OH2            34.7054094280       38.1250175841        2.4886036648  W2        16164           0.0000000000
     46220     15407  TIP3      H1             35.1176694280       37.4035875841        2.0134036648  W2        16164           0.0000000000
     46221     15407  TIP3      H2             35.3870594280       38.7944775841        2.5470336648  W2        16164           0.0000000000
     46222     15408  TIP3      OH2            16.9864794280       38.1297875841        5.6156736648  W2        16165           0.0000000000
     46223     15408  TIP3      H1             16.0613194280       38.3384475841        5.4862236648  W2        16165           0.0000000000
     46224     15408  TIP3      H2             17.4404694280       38.6138675841        4.9259036648  W2        16165           0.0000000000
     46225     15409  TIP3      OH2            31.7571994280       53.1139575841        7.5614136648  W2        16166           0.0000000000
     46226     15409  TIP3      H1             32.4094894280       52.7661675841        6.9533236648  W2        16166           0.0000000000
     46227     15409  TIP3      H2             32.2675794280       53.6022775841        8.2073836648  W2        16166           0.0000000000
     46228     15410  TIP3      OH2            16.9500194280       36.8676875841       13.9599236648  W2        16167           0.0000000000
     46229     15410  TIP3      H1             16.2850694280       36.6217175841       14.6030136648  W2        16167           0.0000000000
     46230     15410  TIP3      H2             16.5071494280       37.4897275841       13.3827236648  W2        16167           0.0000000000
     46231     15411  TIP3      OH2            22.0962394280       51.0172175841       14.3629036648  W2        16169           0.0000000000
     46232     15411  TIP3      H1             21.6713494280       51.8270675841       14.0803636648  W2        16169           0.0000000000
     46233     15411  TIP3      H2             23.0005194280       51.1026275841       14.0608836648  W2        16169           0.0000000000
     46234     15412  TIP3      OH2            26.4073794280       52.4162175841       17.3222736648  W2        16170           0.0000000000
     46235     15412  TIP3      H1             26.5921294280       52.0828275841       18.2003036648  W2        16170           0.0000000000
     46236     15412  TIP3      H2             27.2538294280       52.7260775841       17.0001936648  W2        16170           0.0000000000
     46237     15413  TIP3      OH2            28.7524194280       53.7021075841       16.5664136648  W2        16171           0.0000000000
     46238     15413  TIP3      H1             29.4293094280       53.0693375841       16.3263336648  W2        16171           0.0000000000
     46239     15413  TIP3      H2             29.0742994280       54.1031575841       17.3737436648  W2        16171           0.0000000000
     46240     15414  TIP3      OH2            33.6697994280       36.2916575841       15.6459136648  W2        16172           0.0000000000
     46241     15414  TIP3      H1             32.8571494280       36.6166875841       15.2583836648  W2        16172           0.0000000000
     46242     15414  TIP3      H2             33.9026494280       35.5315075841       15.1128236648  W2        16172           0.0000000000
     46243     15415  TIP3      OH2            19.4979094280       54.2736075841       14.4104336648  W2        16173           0.0000000000
     46244     15415  TIP3      H1             18.7775494280       54.7137075841       13.9592036648  W2        16173           0.0000000000
     46245     15415  TIP3      H2             19.1323094280       54.0230775841       15.2588336648  W2        16173           0.0000000000
     46246     15416  TIP3      OH2            21.9651694280       53.8739975841       13.4401536648  W2        16174           0.0000000000
     46247     15416  TIP3      H1             21.1003894280       53.9458475841       13.8441636648  W2        16174           0.0000000000
     46248     15416  TIP3      H2             21.9100694280       54.4207275841       12.6564036648  W2        16174           0.0000000000
     46249     15417  TIP3      OH2            26.6757294280       53.7618875841       12.6157536648  W2        16175           0.0000000000
     46250     15417  TIP3      H1             26.2191294280       54.2908575841       11.9615936648  W2        16175           0.0000000000
     46251     15417  TIP3      H2             26.8385294280       54.3650275841       13.3409836648  W2        16175           0.0000000000
     46252     15418  TIP3      OH2            29.0033594280       52.6398475841       13.5607836648  W2        16176           0.0000000000
     46253     15418  TIP3      H1             28.0987294280       52.8048675841       13.2949936648  W2        16176           0.0000000000
     46254     15418  TIP3      H2             29.4322194280       53.4930675841       13.4951236648  W2        16176           0.0000000000
     46255     15419  TIP3      OH2            31.6075494280       54.2097575841       13.8555636648  W2        16177           0.0000000000
     46256     15419  TIP3      H1             31.4257494280       55.1256475841       13.6450536648  W2        16177           0.0000000000
     46257     15419  TIP3      H2             31.7843294280       53.7994675841       13.0090236648  W2        16177           0.0000000000
     46258     15420  TIP3      OH2            18.9127194280       52.8968575841       11.3206136648  W2        16178           0.0000000000
     46259     15420  TIP3      H1             18.8943194280       52.4713675841       12.1778436648  W2        16178           0.0000000000
     46260     15420  TIP3      H2             19.7175094280       52.5783575841       10.9118336648  W2        16178           0.0000000000
     46261     15421  TIP3      OH2            21.0540294280       51.6067275841        9.9756036648  W2        16179           0.0000000000
     46262     15421  TIP3      H1             20.8350994280       50.6904675841       10.1452036648  W2        16179           0.0000000000
     46263     15421  TIP3      H2             21.8782494280       51.7467675841       10.4417436648  W2        16179           0.0000000000
     46264     15422  TIP3      OH2            23.5912794280       52.0766575841       10.8244036648  W2        16180           0.0000000000
     46265     15422  TIP3      H1             23.8038494280       51.1885575841       10.5374936648  W2        16180           0.0000000000
     46266     15422  TIP3      H2             23.6557894280       52.0424275841       11.7788036648  W2        16180           0.0000000000
     46267     15423  TIP3      OH2            27.0996494280       37.7407175841        9.9687336648  W2        16181           0.0000000000
     46268     15423  TIP3      H1             26.4253294280       37.1112775841       10.2243136648  W2        16181           0.0000000000
     46269     15423  TIP3      H2             27.6635694280       37.2566075841        9.3655236648  W2        16181           0.0000000000
     46270     15424  TIP3      OH2            32.2423694280       35.8481175841       10.0814436648  W2        16182           0.0000000000
     46271     15424  TIP3      H1             32.8461294280       36.3956575841        9.5795436648  W2        16182           0.0000000000
     46272     15424  TIP3      H2             31.3725694280       36.1671575841        9.8408536648  W2        16182           0.0000000000
     46273     15425  TIP3      OH2            33.9694094280       36.9869875841        8.4145336648  W2        16183           0.0000000000
     46274     15425  TIP3      H1             34.5811594280       36.4725575841        7.8878936648  W2        16183           0.0000000000
     46275     15425  TIP3      H2             34.3517494280       37.8641975841        8.4379736648  W2        16183           0.0000000000
     46276     15426  TIP3      OH2            19.4263994280       36.3747475841        7.7907236648  W2        16184           0.0000000000
     46277     15426  TIP3      H1             18.6493794280       36.1402375841        7.2833136648  W2        16184           0.0000000000
     46278     15426  TIP3      H2             19.9567594280       35.5779575841        7.7995236648  W2        16184           0.0000000000
     46279     15427  TIP3      OH2            18.2627394280       36.1725575841        3.5943336648  W2        16185           0.0000000000
     46280     15427  TIP3      H1             18.7018094280       36.7836075841        3.0026836648  W2        16185           0.0000000000
     46281     15427  TIP3      H2             17.6289794280       36.7109675841        4.0683336648  W2        16185           0.0000000000
     46282     15428  TIP3      OH2            24.0056594280       36.3014575841        7.6040336648  W2        16186           0.0000000000
     46283     15428  TIP3      H1             24.8799994280       36.6898875841        7.5744636648  W2        16186           0.0000000000
     46284     15428  TIP3      H2             23.8697394280       36.0862375841        8.5267536648  W2        16186           0.0000000000
     46285     15429  TIP3      OH2            29.5624994280       36.3314375841        9.2532036648  W2        16187           0.0000000000
     46286     15429  TIP3      H1             29.6386594280       36.4265975841        8.3038036648  W2        16187           0.0000000000
     46287     15429  TIP3      H2             29.2874194280       35.4237275841        9.3821136648  W2        16187           0.0000000000
     46288     15430  TIP3      OH2            30.9157594280       36.3572175841        4.9457036648  W2        16188           0.0000000000
     46289     15430  TIP3      H1             30.2128694280       36.9721375841        4.7358436648  W2        16188           0.0000000000
     46290     15430  TIP3      H2             30.4708994280       35.5198875841        5.0767936648  W2        16188           0.0000000000
     46291     15431  TIP3      OH2            18.1636894280       52.1207775841        4.4918436648  W2        16189           0.0000000000
     46292     15431  TIP3      H1             17.4786794280       52.0826675841        3.8243536648  W2        16189           0.0000000000
     46293     15431  TIP3      H2             18.1674094280       53.0335375841        4.7800536648  W2        16189           0.0000000000
     46294     15432  TIP3      OH2            20.1236494280       38.0887075841        2.0367436648  W2        16190           0.0000000000
     46295     15432  TIP3      H1             20.6149894280       37.4589475841        1.5092936648  W2        16190           0.0000000000
     46296     15432  TIP3      H2             20.7472794280       38.3846475841        2.6998636648  W2        16190           0.0000000000
     46297     15433  TIP3      OH2            25.1496594280       38.3818575841        4.4937936648  W2        16191           0.0000000000
     46298     15433  TIP3      H1             25.3277894280       37.7351775841        5.1766536648  W2        16191           0.0000000000
     46299     15433  TIP3      H2             25.0962794280       39.2156275841        4.9609036648  W2        16191           0.0000000000
     46300     15434  TIP3      OH2            27.0280394280       53.3302675841        2.8894636648  W2        16192           0.0000000000
     46301     15434  TIP3      H1             27.8940594280       53.6970075841        2.7112836648  W2        16192           0.0000000000
     46302     15434  TIP3      H2             26.7813194280       52.8910675841        2.0755436648  W2        16192           0.0000000000
     46303     15435  TIP3      OH2            33.7369994280       52.8932975841        5.5685736648  W2        16193           0.0000000000
     46304     15435  TIP3      H1             33.5427094280       52.1455075841        5.0035336648  W2        16193           0.0000000000
     46305     15435  TIP3      H2             33.6980094280       53.6513075841        4.9853636648  W2        16193           0.0000000000
     46306     15436  TIP3      OH2            19.3841994280       36.8889375841       17.3083436648  W2        16194           0.0000000000
     46307     15436  TIP3      H1             19.0180194280       36.1231975841       17.7508136648  W2        16194           0.0000000000
     46308     15436  TIP3      H2             20.2970494280       36.9179575841       17.5948536648  W2        16194           0.0000000000
     46309     15437  TIP3      OH2            19.9818094280       53.0408575841        1.5170536648  W2        16196           0.0000000000
     46310     15437  TIP3      H1             19.7142694280       53.3271475841        2.3903636648  W2        16196           0.0000000000
     46311     15437  TIP3      H2             20.7530694280       52.4947775841        1.6693036648  W2        16196           0.0000000000
     46312     15438  TIP3      OH2            32.9546194280       51.6445375841       17.7187536648  W2        16198           0.0000000000
     46313     15438  TIP3      H1             32.1728094280       51.4583375841       17.1988136648  W2        16198           0.0000000000
     46314     15438  TIP3      H2             32.8826094280       52.5739675841       17.9360036648  W2        16198           0.0000000000
     46315     15439  TIP3      OH2            47.3606594280       45.5309775841        7.7494736648  W2        16199           0.0000000000
     46316     15439  TIP3      H1             47.4497694280       46.4747975841        7.6171836648  W2        16199           0.0000000000
     46317     15439  TIP3      H2             46.7224194280       45.2556175841        7.0914136648  W2        16199           0.0000000000
     46318     15440  TIP3      OH2            46.2937894280       44.7860475841       11.1682936648  W2        16200           0.0000000000
     46319     15440  TIP3      H1             46.2555394280       44.1396775841       11.8732536648  W2        16200           0.0000000000
     46320     15440  TIP3      H2             45.9714394280       44.3194875841       10.3971636648  W2        16200           0.0000000000
     46321     15441  TIP3      OH2            38.6622894280       44.4002575841       12.7612836648  W2        16201           0.0000000000
     46322     15441  TIP3      H1             38.7034994280       43.7745875841       13.4845236648  W2        16201           0.0000000000
     46323     15441  TIP3      H2             39.3650594280       45.0241175841       12.9433236648  W2        16201           0.0000000000
     46324     15442  TIP3      OH2            49.9998094280       47.7250875841        9.4698036648  W2        16202           0.0000000000
     46325     15442  TIP3      H1             49.5590794280       47.0046875841        9.9203636648  W2        16202           0.0000000000
     46326     15442  TIP3      H2             49.9867794280       48.4458075841       10.0995736648  W2        16202           0.0000000000
     46327     15443  TIP3      OH2            39.5855994280       48.8501475841       11.2961936648  W2        16203           0.0000000000
     46328     15443  TIP3      H1             39.2161194280       48.0481975841       10.9266236648  W2        16203           0.0000000000
     46329     15443  TIP3      H2             40.5267094280       48.6816375841       11.3425336648  W2        16203           0.0000000000
     46330     15444  TIP3      OH2            36.1956494280       42.5104075841        6.6890736648  W2        16204           0.0000000000
     46331     15444  TIP3      H1             35.7479894280       43.3562775841        6.6707236648  W2        16204           0.0000000000
     46332     15444  TIP3      H2             35.6347694280       41.9308275841        6.1735836648  W2        16204           0.0000000000
     46333     15445  TIP3      OH2            36.9062594280       44.6723675841        8.8148736648  W2        16205           0.0000000000
     46334     15445  TIP3      H1             37.1196094280       43.9025275841        9.3421736648  W2        16205           0.0000000000
     46335     15445  TIP3      H2             37.6440194280       44.7620375841        8.2116336648  W2        16205           0.0000000000
     46336     15446  TIP3      OH2            47.1113594280       52.8292575841        9.6818436648  W2        16206           0.0000000000
     46337     15446  TIP3      H1             47.7309994280       52.1527275841        9.4087636648  W2        16206           0.0000000000
     46338     15446  TIP3      H2             46.9030994280       52.6113375841       10.5903336648  W2        16206           0.0000000000
     46339     15447  TIP3      OH2            44.6832294280       47.2181875841       11.5743936648  W2        16207           0.0000000000
     46340     15447  TIP3      H1             44.9870194280       46.5323275841       10.9798036648  W2        16207           0.0000000000
     46341     15447  TIP3      H2             45.4046294280       47.3370575841       12.1921936648  W2        16207           0.0000000000
     46342     15448  TIP3      OH2            53.3462094280       38.8197175841       12.4350136648  W2        16208           0.0000000000
     46343     15448  TIP3      H1             53.3954294280       39.4298375841       13.1709236648  W2        16208           0.0000000000
     46344     15448  TIP3      H2             53.7717194280       39.2808075841       11.7121236648  W2        16208           0.0000000000
     46345     15449  TIP3      OH2            47.8239294280       41.6124275841       11.9018736648  W2        16209           0.0000000000
     46346     15449  TIP3      H1             47.9665194280       40.6661275841       11.9220336648  W2        16209           0.0000000000
     46347     15449  TIP3      H2             47.7178294280       41.8194075841       10.9733636648  W2        16209           0.0000000000
     46348     15450  TIP3      OH2            40.9787594280       39.7140675841        9.1743536648  W2        16210           0.0000000000
     46349     15450  TIP3      H1             41.0218694280       40.5739175841        8.7559836648  W2        16210           0.0000000000
     46350     15450  TIP3      H2             40.5211694280       39.1615375841        8.5406736648  W2        16210           0.0000000000
     46351     15451  TIP3      OH2            48.7010294280       39.8446275841        7.5751836648  W2        16211           0.0000000000
     46352     15451  TIP3      H1             49.3474594280       39.5159475841        8.1999436648  W2        16211           0.0000000000
     46353     15451  TIP3      H2             49.2109694280       40.3625275841        6.9523236648  W2        16211           0.0000000000
     46354     15452  TIP3      OH2            37.5989094280       42.1106475841        9.9364936648  W2        16212           0.0000000000
     46355     15452  TIP3      H1             38.2525694280       41.5608175841       10.3685036648  W2        16212           0.0000000000
     46356     15452  TIP3      H2             37.6228394280       41.8365475841        9.0196936648  W2        16212           0.0000000000
     46357     15453  TIP3      OH2            42.7553594280       43.6607775841        9.1516436648  W2        16213           0.0000000000
     46358     15453  TIP3      H1             43.3714594280       43.1343175841        9.6610436648  W2        16213           0.0000000000
     46359     15453  TIP3      H2             42.1692394280       43.0206475841        8.7480036648  W2        16213           0.0000000000
     46360     15454  TIP3      OH2            53.7376694280       40.2976375841       14.6709936648  W2        16214           0.0000000000
     46361     15454  TIP3      H1             53.0491294280       40.9557075841       14.5756536648  W2        16214           0.0000000000
     46362     15454  TIP3      H2             53.7531294280       40.1004275841       15.6075336648  W2        16214           0.0000000000
     46363     15455  TIP3      OH2            39.7889494280       38.6319075841       13.2484336648  W2        16215           0.0000000000
     46364     15455  TIP3      H1             39.5701194280       39.1619675841       12.4820336648  W2        16215           0.0000000000
     46365     15455  TIP3      H2             39.1210394280       38.8584575841       13.8955736648  W2        16215           0.0000000000
     46366     15456  TIP3      OH2            47.1579294280       48.1320175841        6.7923436648  W2        16216           0.0000000000
     46367     15456  TIP3      H1             46.8624394280       47.8092475841        5.9410336648  W2        16216           0.0000000000
     46368     15456  TIP3      H2             46.8337094280       49.0316875841        6.8336036648  W2        16216           0.0000000000
     46369     15457  TIP3      OH2            42.3580894280       46.3074775841       13.5358036648  W2        16217           0.0000000000
     46370     15457  TIP3      H1             41.6179994280       46.9056275841       13.6393236648  W2        16217           0.0000000000
     46371     15457  TIP3      H2             43.0720394280       46.8614375841       13.2201636648  W2        16217           0.0000000000
     46372     15458  TIP3      OH2            50.4648694280       39.1355575841        9.5557736648  W2        16218           0.0000000000
     46373     15458  TIP3      H1             50.2496694280       38.3698975841       10.0883736648  W2        16218           0.0000000000
     46374     15458  TIP3      H2             51.1206094280       39.6080175841       10.0686236648  W2        16218           0.0000000000
     46375     15459  TIP3      OH2            39.3826794280       40.5240875841       11.2006536648  W2        16219           0.0000000000
     46376     15459  TIP3      H1             39.9963094280       41.1568475841       11.5738936648  W2        16219           0.0000000000
     46377     15459  TIP3      H2             39.8947494280       40.0515875841       10.5443436648  W2        16219           0.0000000000
     46378     15460  TIP3      OH2            40.7655194280       48.2717775841       14.3229536648  W2        16220           0.0000000000
     46379     15460  TIP3      H1             40.7602794280       49.1511275841       13.9448836648  W2        16220           0.0000000000
     46380     15460  TIP3      H2             39.9119294280       48.1881875841       14.7479436648  W2        16220           0.0000000000
     46381     15461  TIP3      OH2            36.8866094280       47.9425675841        5.1048836648  W2        16221           0.0000000000
     46382     15461  TIP3      H1             36.6146994280       48.1716675841        4.2161736648  W2        16221           0.0000000000
     46383     15461  TIP3      H2             36.9321794280       48.7804475841        5.5654136648  W2        16221           0.0000000000
     46384     15462  TIP3      OH2            50.5115794280       49.5641575841       11.8177336648  W2        16222           0.0000000000
     46385     15462  TIP3      H1             49.5699494280       49.6225475841       11.9794236648  W2        16222           0.0000000000
     46386     15462  TIP3      H2             50.7881894280       50.4702075841       11.6807036648  W2        16222           0.0000000000
     46387     15463  TIP3      OH2            50.8122794280       37.8506875841       13.2351236648  W2        16223           0.0000000000
     46388     15463  TIP3      H1             50.0761994280       38.4613975841       13.1972536648  W2        16223           0.0000000000
     46389     15463  TIP3      H2             51.4956794280       38.2655875841       12.7087636648  W2        16223           0.0000000000
     46390     15464  TIP3      OH2            43.8154194280       35.9374175841       10.7009236648  W2        16224           0.0000000000
     46391     15464  TIP3      H1             43.6978394280       34.9890175841       10.6467536648  W2        16224           0.0000000000
     46392     15464  TIP3      H2             42.9604294280       36.2700275841       10.9740336648  W2        16224           0.0000000000
     46393     15465  TIP3      OH2            48.7636994280       51.3455075841        8.4428936648  W2        16225           0.0000000000
     46394     15465  TIP3      H1             49.1889294280       50.6382975841        7.9578536648  W2        16225           0.0000000000
     46395     15465  TIP3      H2             49.0806994280       52.1467775841        8.0261136648  W2        16225           0.0000000000
     46396     15466  TIP3      OH2            49.9233494280       49.2463575841        6.9515536648  W2        16226           0.0000000000
     46397     15466  TIP3      H1             49.6658294280       48.5563675841        6.3401436648  W2        16226           0.0000000000
     46398     15466  TIP3      H2             49.9944294280       48.8034775841        7.7971436648  W2        16226           0.0000000000
     46399     15467  TIP3      OH2            51.6093694280       47.8130275841       15.4289036648  W2        16227           0.0000000000
     46400     15467  TIP3      H1             51.7489994280       47.2212775841       14.6896036648  W2        16227           0.0000000000
     46401     15467  TIP3      H2             51.7766494280       48.6856175841       15.0727836648  W2        16227           0.0000000000
     46402     15468  TIP3      OH2            46.0819094280       44.7749775841        5.2015036648  W2        16228           0.0000000000
     46403     15468  TIP3      H1             45.3704594280       45.3099475841        4.8495536648  W2        16228           0.0000000000
     46404     15468  TIP3      H2             46.7728694280       44.8301875841        4.5413936648  W2        16228           0.0000000000
     46405     15469  TIP3      OH2            46.1358294280       43.2324075841        2.2400036648  W2        16229           0.0000000000
     46406     15469  TIP3      H1             46.8368194280       43.2550975841        2.8914036648  W2        16229           0.0000000000
     46407     15469  TIP3      H2             46.4381194280       42.6043775841        1.5839336648  W2        16229           0.0000000000
     46408     15470  TIP3      OH2            53.4512994280       44.1528275841       13.4949436648  W2        16230           0.0000000000
     46409     15470  TIP3      H1             52.7987094280       44.8473875841       13.5840336648  W2        16230           0.0000000000
     46410     15470  TIP3      H2             53.9163294280       44.3629175841       12.6851036648  W2        16230           0.0000000000
     46411     15471  TIP3      OH2            49.4876794280       44.9843075841        6.1530936648  W2        16231           0.0000000000
     46412     15471  TIP3      H1             48.7557794280       45.2126775841        6.7261536648  W2        16231           0.0000000000
     46413     15471  TIP3      H2             49.9348994280       44.2705775841        6.6078436648  W2        16231           0.0000000000
     46414     15472  TIP3      OH2            49.3850294280       43.1585675841       15.2207936648  W2        16232           0.0000000000
     46415     15472  TIP3      H1             49.4649394280       43.9220075841       15.7926436648  W2        16232           0.0000000000
     46416     15472  TIP3      H2             48.7837994280       43.4378075841       14.5303036648  W2        16232           0.0000000000
     46417     15473  TIP3      OH2            41.1330494280       45.6149275841        8.0355936648  W2        16233           0.0000000000
     46418     15473  TIP3      H1             40.8025694280       45.2442675841        7.2172936648  W2        16233           0.0000000000
     46419     15473  TIP3      H2             41.7214594280       44.9443275841        8.3824236648  W2        16233           0.0000000000
     46420     15474  TIP3      OH2            42.4997994280       49.0429875841       10.7168136648  W2        16234           0.0000000000
     46421     15474  TIP3      H1             42.4049294280       48.4642975841        9.9602736648  W2        16234           0.0000000000
     46422     15474  TIP3      H2             43.2291594280       48.6715575841       11.2130936648  W2        16234           0.0000000000
     46423     15475  TIP3      OH2            41.4995994280       44.3834875841       11.6690936648  W2        16235           0.0000000000
     46424     15475  TIP3      H1             42.0648494280       44.5049075841       10.9062136648  W2        16235           0.0000000000
     46425     15475  TIP3      H2             41.8184894280       45.0209875841       12.3079436648  W2        16235           0.0000000000
     46426     15476  TIP3      OH2            47.8088194280       49.8866775841       12.4031436648  W2        16236           0.0000000000
     46427     15476  TIP3      H1             47.5684794280       50.5489875841       13.0510636648  W2        16236           0.0000000000
     46428     15476  TIP3      H2             47.6106394280       49.0521975841       12.8281036648  W2        16236           0.0000000000
     46429     15477  TIP3      OH2            42.3796694280       48.7827575841       16.3862836648  W2        16237           0.0000000000
     46430     15477  TIP3      H1             42.0684194280       49.5650775841       16.8416036648  W2        16237           0.0000000000
     46431     15477  TIP3      H2             41.7296894280       48.6296675841       15.7004836648  W2        16237           0.0000000000
     46432     15478  TIP3      OH2            48.3586294280       44.1465975841        3.8382136648  W2        16238           0.0000000000
     46433     15478  TIP3      H1             48.9381794280       44.2966275841        4.5851036648  W2        16238           0.0000000000
     46434     15478  TIP3      H2             48.7726294280       44.6173375841        3.1148536648  W2        16238           0.0000000000
     46435     15479  TIP3      OH2            39.2996594280       44.9808675841       15.6148536648  W2        16239           0.0000000000
     46436     15479  TIP3      H1             39.3699794280       45.6315475841       16.3133536648  W2        16239           0.0000000000
     46437     15479  TIP3      H2             38.4088794280       45.0836175841       15.2799436648  W2        16239           0.0000000000
     46438     15480  TIP3      OH2            46.0851194280       50.8834475841        7.2735236648  W2        16240           0.0000000000
     46439     15480  TIP3      H1             46.5588794280       51.1790775841        8.0509436648  W2        16240           0.0000000000
     46440     15480  TIP3      H2             45.5220494280       51.6216075841        7.0404836648  W2        16240           0.0000000000
     46441     15481  TIP3      OH2            40.6192594280       50.8542575841       17.1496636648  W2        16241           0.0000000000
     46442     15481  TIP3      H1             40.6267894280       50.7182275841       16.2022136648  W2        16241           0.0000000000
     46443     15481  TIP3      H2             39.7032994280       50.7370675841       17.4016636648  W2        16241           0.0000000000
     46444     15482  TIP3      OH2            52.0574694280       35.8966375841        3.6511836648  W2        16242           0.0000000000
     46445     15482  TIP3      H1             51.1575394280       36.0355375841        3.9462436648  W2        16242           0.0000000000
     46446     15482  TIP3      H2             52.3093094280       36.7280975841        3.2493536648  W2        16242           0.0000000000
     46447     15483  TIP3      OH2            40.1233194280       44.6843575841        5.6248736648  W2        16243           0.0000000000
     46448     15483  TIP3      H1             39.8314494280       45.4525275841        5.1340036648  W2        16243           0.0000000000
     46449     15483  TIP3      H2             39.4488394280       44.0249775841        5.4620136648  W2        16243           0.0000000000
     46450     15484  TIP3      OH2            53.2466094280       50.2628775841        2.0275736648  W2        16244           0.0000000000
     46451     15484  TIP3      H1             53.3199594280       51.2018975841        2.1981036648  W2        16244           0.0000000000
     46452     15484  TIP3      H2             54.1521194280       49.9577375841        1.9713036648  W2        16244           0.0000000000
     46453     15485  TIP3      OH2            36.2163294280       47.0472775841       14.4398536648  W2        16245           0.0000000000
     46454     15485  TIP3      H1             35.7151694280       47.0192175841       13.6248236648  W2        16245           0.0000000000
     46455     15485  TIP3      H2             36.2216994280       46.1415975841       14.7495836648  W2        16245           0.0000000000
     46456     15486  TIP3      OH2            35.9665994280       49.8276575841       11.3238736648  W2        16246           0.0000000000
     46457     15486  TIP3      H1             36.9126594280       49.6833575841       11.3048236648  W2        16246           0.0000000000
     46458     15486  TIP3      H2             35.8542294280       50.6119375841       11.8609936648  W2        16246           0.0000000000
     46459     15487  TIP3      OH2            54.1644494280       50.4936275841       17.0062436648  W2        16247           0.0000000000
     46460     15487  TIP3      H1             54.1151294280       49.5384375841       16.9690036648  W2        16247           0.0000000000
     46461     15487  TIP3      H2             53.3376794280       50.7611575841       17.4076236648  W2        16247           0.0000000000
     46462     15488  TIP3      OH2            45.1428494280       50.0675475841       15.8823836648  W2        16248           0.0000000000
     46463     15488  TIP3      H1             45.2303094280       50.8940075841       16.3572936648  W2        16248           0.0000000000
     46464     15488  TIP3      H2             44.2793594280       49.7379275841       16.1313136648  W2        16248           0.0000000000
     46465     15489  TIP3      OH2            45.5574294280       53.8399175841        5.6884436648  W2        16249           0.0000000000
     46466     15489  TIP3      H1             45.4820294280       53.7186375841        4.7419636648  W2        16249           0.0000000000
     46467     15489  TIP3      H2             45.5902994280       54.7891875841        5.8069036648  W2        16249           0.0000000000
     46468     15490  TIP3      OH2            39.2108094280       52.6286175841        7.4693436648  W2        16250           0.0000000000
     46469     15490  TIP3      H1             39.3628494280       52.2806575841        8.3479936648  W2        16250           0.0000000000
     46470     15490  TIP3      H2             38.3598494280       52.2723475841        7.2140636648  W2        16250           0.0000000000
     46471     15491  TIP3      OH2            48.6590294280       52.9939375841        2.6906836648  W2        16251           0.0000000000
     46472     15491  TIP3      H1             49.0338694280       52.2495475841        2.2199436648  W2        16251           0.0000000000
     46473     15491  TIP3      H2             48.6633994280       52.7239975841        3.6090136648  W2        16251           0.0000000000
     46474     15492  TIP3      OH2            48.3278394280       52.9196475841        5.4399036648  W2        16252           0.0000000000
     46475     15492  TIP3      H1             47.3928194280       53.0198375841        5.6186036648  W2        16252           0.0000000000
     46476     15492  TIP3      H2             48.6080294280       52.2102475841        6.0182236648  W2        16252           0.0000000000
     46477     15493  TIP3      OH2            51.3164294280       41.9868775841       17.4864636648  W2        16253           0.0000000000
     46478     15493  TIP3      H1             50.9091094280       42.4674375841       16.7657936648  W2        16253           0.0000000000
     46479     15493  TIP3      H2             51.3569994280       41.0814775841       17.1785436648  W2        16253           0.0000000000
     46480     15494  TIP3      OH2            38.4653794280       48.3708175841       15.4831336648  W2        16254           0.0000000000
     46481     15494  TIP3      H1             38.6815094280       48.0093775841       16.3427136648  W2        16254           0.0000000000
     46482     15494  TIP3      H2             37.6098494280       47.9961975841       15.2734836648  W2        16254           0.0000000000
     46483     15495  TIP3      OH2            41.0841794280       36.8408675841       11.4785536648  W2        16255           0.0000000000
     46484     15495  TIP3      H1             40.2225494280       36.7536875841       11.0708436648  W2        16255           0.0000000000
     46485     15495  TIP3      H2             41.0617494280       37.6968775841       11.9063136648  W2        16255           0.0000000000
     46486     15496  TIP3      OH2            45.7469594280       36.5629075841       14.8532536648  W2        16256           0.0000000000
     46487     15496  TIP3      H1             46.1672694280       36.1476175841       15.6063136648  W2        16256           0.0000000000
     46488     15496  TIP3      H2             44.8139194280       36.3842375841       14.9704536648  W2        16256           0.0000000000
     46489     15497  TIP3      OH2            49.0734494280       40.3184275841       15.7067036648  W2        16257           0.0000000000
     46490     15497  TIP3      H1             48.5593994280       40.1926475841       16.5043036648  W2        16257           0.0000000000
     46491     15497  TIP3      H2             48.9179194280       41.2307375841       15.4623236648  W2        16257           0.0000000000
     46492     15498  TIP3      OH2            49.8359394280       45.1794275841        1.4680036648  W2        16258           0.0000000000
     46493     15498  TIP3      H1             49.8780194280       44.9568175841        0.5380036648  W2        16258           0.0000000000
     46494     15498  TIP3      H2             50.6851494280       45.5781375841        1.6579936648  W2        16258           0.0000000000
     46495     15499  TIP3      OH2            45.4086894280       39.0552475841        2.1383336648  W2        16259           0.0000000000
     46496     15499  TIP3      H1             45.1551694280       39.0744075841        3.0611436648  W2        16259           0.0000000000
     46497     15499  TIP3      H2             45.1518994280       38.1837875841        1.8369536648  W2        16259           0.0000000000
     46498     15500  TIP3      OH2            41.1751894280       41.8063175841       12.5735736648  W2        16260           0.0000000000
     46499     15500  TIP3      H1             40.5333994280       41.7660475841       13.2825836648  W2        16260           0.0000000000
     46500     15500  TIP3      H2             41.2123894280       42.7327875841       12.3358736648  W2        16260           0.0000000000
     46501     15501  TIP3      OH2            41.1720994280       42.0273275841        7.4855736648  W2        16261           0.0000000000
     46502     15501  TIP3      H1             40.2793894280       41.6869375841        7.4269536648  W2        16261           0.0000000000
     46503     15501  TIP3      H2             41.6227594280       41.6504175841        6.7298936648  W2        16261           0.0000000000
     46504     15502  TIP3      OH2            46.7076494280       42.4433575841        6.3026536648  W2        16262           0.0000000000
     46505     15502  TIP3      H1             46.2986794280       43.2582175841        6.0111336648  W2        16262           0.0000000000
     46506     15502  TIP3      H2             47.4282694280       42.3033675841        5.6883636648  W2        16262           0.0000000000
     46507     15503  TIP3      OH2            45.8098094280       42.6189975841       17.7907236648  W2        16263           0.0000000000
     46508     15503  TIP3      H1             45.2471894280       41.9141575841       18.1115036648  W2        16263           0.0000000000
     46509     15503  TIP3      H2             46.6361494280       42.4981875841       18.2584836648  W2        16263           0.0000000000
     46510     15504  TIP3      OH2            47.7124194280       41.8893975841        9.1166236648  W2        16264           0.0000000000
     46511     15504  TIP3      H1             47.5168694280       42.4950775841        8.4016836648  W2        16264           0.0000000000
     46512     15504  TIP3      H2             47.8936794280       41.0559175841        8.6822536648  W2        16264           0.0000000000
     46513     15505  TIP3      OH2            38.9252394280       42.1266675841       14.4407736648  W2        16265           0.0000000000
     46514     15505  TIP3      H1             38.8871794280       42.5268275841       15.3094836648  W2        16265           0.0000000000
     46515     15505  TIP3      H2             38.4343494280       41.3099075841       14.5310636648  W2        16265           0.0000000000
     46516     15506  TIP3      OH2            42.2909794280       39.5008975841        1.2393736648  W2        16266           0.0000000000
     46517     15506  TIP3      H1             41.8600494280       39.0559075841        1.9691136648  W2        16266           0.0000000000
     46518     15506  TIP3      H2             41.5728494280       39.8725275841        0.7271236648  W2        16266           0.0000000000
     46519     15507  TIP3      OH2            35.5333194280       39.2428475841        8.2912436648  W2        16267           0.0000000000
     46520     15507  TIP3      H1             36.1640894280       39.2140575841        9.0106336648  W2        16267           0.0000000000
     46521     15507  TIP3      H2             35.9827494280       38.8177175841        7.5608336648  W2        16267           0.0000000000
     46522     15508  TIP3      OH2            36.8075294280       39.9890475841        3.7152836648  W2        16268           0.0000000000
     46523     15508  TIP3      H1             37.2816994280       40.5800375841        3.1303736648  W2        16268           0.0000000000
     46524     15508  TIP3      H2             36.0901694280       40.5193375841        4.0622936648  W2        16268           0.0000000000
     46525     15509  TIP3      OH2            46.9763394280       43.5275275841       13.7878636648  W2        16269           0.0000000000
     46526     15509  TIP3      H1             47.2998194280       42.8964975841       13.1449136648  W2        16269           0.0000000000
     46527     15509  TIP3      H2             46.5362694280       42.9927475841       14.4486036648  W2        16269           0.0000000000
     46528     15510  TIP3      OH2            43.7536294280       39.4550775841        8.5719836648  W2        16270           0.0000000000
     46529     15510  TIP3      H1             42.8427394280       39.5117575841        8.8605836648  W2        16270           0.0000000000
     46530     15510  TIP3      H2             44.2589194280       39.3946275841        9.3827036648  W2        16270           0.0000000000
     46531     15511  TIP3      OH2            38.5819694280       41.0837075841        7.3987436648  W2        16271           0.0000000000
     46532     15511  TIP3      H1             37.6927694280       41.1832575841        7.0587036648  W2        16271           0.0000000000
     46533     15511  TIP3      H2             38.8784594280       40.2420075841        7.0525336648  W2        16271           0.0000000000
     46534     15512  TIP3      OH2            42.2351494280       41.0839675841        5.0552036648  W2        16272           0.0000000000
     46535     15512  TIP3      H1             43.1666994280       41.2129675841        5.2335136648  W2        16272           0.0000000000
     46536     15512  TIP3      H2             42.0201794280       41.7533975841        4.4056736648  W2        16272           0.0000000000
     46537     15513  TIP3      OH2            48.1588194280       38.6897075841       11.8361636648  W2        16273           0.0000000000
     46538     15513  TIP3      H1             47.4819794280       38.8210175841       12.5001336648  W2        16273           0.0000000000
     46539     15513  TIP3      H2             47.6733094280       38.5346575841       11.0259336648  W2        16273           0.0000000000
     46540     15514  TIP3      OH2            40.9091694280       42.2781875841        2.6218136648  W2        16274           0.0000000000
     46541     15514  TIP3      H1             40.3666794280       41.8985675841        1.9305736648  W2        16274           0.0000000000
     46542     15514  TIP3      H2             41.7426594280       42.4726575841        2.1932236648  W2        16274           0.0000000000
     46543     15515  TIP3      OH2            39.0443094280       46.8353775841       17.7209736648  W2        16276           0.0000000000
     46544     15515  TIP3      H1             39.7765494280       47.0899675841       18.2824236648  W2        16276           0.0000000000
     46545     15515  TIP3      H2             38.2641794280       47.0399175841       18.2365136648  W2        16276           0.0000000000
     46546     15516  TIP3      OH2            45.0735994280       42.2423775841       10.4589436648  W2        16277           0.0000000000
     46547     15516  TIP3      H1             45.6379394280       41.6960375841        9.9119036648  W2        16277           0.0000000000
     46548     15516  TIP3      H2             44.9259394280       41.7205675841       11.2477036648  W2        16277           0.0000000000
     46549     15517  TIP3      OH2            40.0755694280       38.3789875841        6.8774236648  W2        16278           0.0000000000
     46550     15517  TIP3      H1             39.7585194280       37.4765175841        6.8419636648  W2        16278           0.0000000000
     46551     15517  TIP3      H2             40.8569794280       38.3807275841        6.3245836648  W2        16278           0.0000000000
     46552     15518  TIP3      OH2            43.7001894280       40.6309875841       12.8729836648  W2        16279           0.0000000000
     46553     15518  TIP3      H1             42.8647194280       41.0849375841       12.9832236648  W2        16279           0.0000000000
     46554     15518  TIP3      H2             44.2242494280       40.9068375841       13.6249736648  W2        16279           0.0000000000
     46555     15519  TIP3      OH2            44.2444494280       46.8437575841        4.5576236648  W2        16280           0.0000000000
     46556     15519  TIP3      H1             43.4995494280       46.3362875841        4.2354136648  W2        16280           0.0000000000
     46557     15519  TIP3      H2             44.1101694280       46.8925575841        5.5041036648  W2        16280           0.0000000000
     46558     15520  TIP3      OH2            51.3943394280       45.9765775841       13.3443836648  W2        16281           0.0000000000
     46559     15520  TIP3      H1             52.0362194280       46.4332075841       12.8006036648  W2        16281           0.0000000000
     46560     15520  TIP3      H2             50.5640294280       46.0898175841       12.8817936648  W2        16281           0.0000000000
     46561     15521  TIP3      OH2            48.1421294280       39.6577475841        2.7568836648  W2        16282           0.0000000000
     46562     15521  TIP3      H1             47.2035494280       39.7693075841        2.6057636648  W2        16282           0.0000000000
     46563     15521  TIP3      H2             48.4393394280       40.5144375841        3.0634536648  W2        16282           0.0000000000
     46564     15522  TIP3      OH2            45.7636594280       47.0280875841       15.7945336648  W2        16283           0.0000000000
     46565     15522  TIP3      H1             45.4182694280       46.6463275841       16.6014936648  W2        16283           0.0000000000
     46566     15522  TIP3      H2             45.5636694280       47.9614475841       15.8658236648  W2        16283           0.0000000000
     46567     15523  TIP3      OH2            48.8604794280       41.5250175841        4.4176236648  W2        16284           0.0000000000
     46568     15523  TIP3      H1             49.7523794280       41.3875175841        4.7367436648  W2        16284           0.0000000000
     46569     15523  TIP3      H2             48.9168394280       42.3156275841        3.8809736648  W2        16284           0.0000000000
     46570     15524  TIP3      OH2            39.3692794280       46.1387575841       10.3274136648  W2        16285           0.0000000000
     46571     15524  TIP3      H1             40.1139994280       46.1363275841        9.7260636648  W2        16285           0.0000000000
     46572     15524  TIP3      H2             39.4469394280       45.3151375841       10.8089236648  W2        16285           0.0000000000
     46573     15525  TIP3      OH2            46.3698594280       48.3021875841        3.5830836648  W2        16286           0.0000000000
     46574     15525  TIP3      H1             46.0746994280       49.1289775841        3.9645636648  W2        16286           0.0000000000
     46575     15525  TIP3      H2             45.6668594280       47.6828775841        3.7792236648  W2        16286           0.0000000000
     46576     15526  TIP3      OH2            36.3772494280       44.5994475841       15.6422636648  W2        16287           0.0000000000
     46577     15526  TIP3      H1             36.6001094280       44.1814075841       16.4740136648  W2        16287           0.0000000000
     46578     15526  TIP3      H2             35.7752594280       43.9869475841       15.2195436648  W2        16287           0.0000000000
     46579     15527  TIP3      OH2            48.0140194280       49.4896375841       15.7450336648  W2        16289           0.0000000000
     46580     15527  TIP3      H1             47.1134494280       49.6728975841       15.4774236648  W2        16289           0.0000000000
     46581     15527  TIP3      H2             48.0481294280       49.7485675841       16.6659136648  W2        16289           0.0000000000
     46582     15528  TIP3      OH2            53.7453494280       41.7344275841        4.1122936648  W2        16290           0.0000000000
     46583     15528  TIP3      H1             53.1909794280       41.3382275841        3.4400436648  W2        16290           0.0000000000
     46584     15528  TIP3      H2             53.8457094280       42.6449475841        3.8346236648  W2        16290           0.0000000000
     46585     15529  TIP3      OH2            53.7085494280       47.5345975841       16.9494436648  W2        16291           0.0000000000
     46586     15529  TIP3      H1             52.8573994280       47.7729775841       16.5820836648  W2        16291           0.0000000000
     46587     15529  TIP3      H2             54.2988894280       47.5179175841       16.1961536648  W2        16291           0.0000000000
     46588     15530  TIP3      OH2            52.0405194280       50.5204675841        4.5775036648  W2        16292           0.0000000000
     46589     15530  TIP3      H1             51.6676294280       49.6948475841        4.8865636648  W2        16292           0.0000000000
     46590     15530  TIP3      H2             52.3178694280       50.3374075841        3.6798436648  W2        16292           0.0000000000
     46591     15531  TIP3      OH2            49.2009094280       45.3284175841       11.5986936648  W2        16293           0.0000000000
     46592     15531  TIP3      H1             48.2725994280       45.0966075841       11.5716236648  W2        16293           0.0000000000
     46593     15531  TIP3      H2             49.6520194280       44.5513975841       11.2685736648  W2        16293           0.0000000000
     46594     15532  TIP3      OH2            41.7442194280       49.6565775841        7.7315636648  W2        16294           0.0000000000
     46595     15532  TIP3      H1             42.2714394280       50.4300175841        7.5314436648  W2        16294           0.0000000000
     46596     15532  TIP3      H2             40.8640694280       49.8814975841        7.4299636648  W2        16294           0.0000000000
     46597     15533  TIP3      OH2            37.4989894280       44.5189875841        2.3188036648  W2        16295           0.0000000000
     46598     15533  TIP3      H1             38.1149794280       45.1457075841        2.6982836648  W2        16295           0.0000000000
     46599     15533  TIP3      H2             36.6372494280       44.8349675841        2.5904536648  W2        16295           0.0000000000
     46600     15534  TIP3      OH2            43.1714494280       47.3195675841        7.3079936648  W2        16296           0.0000000000
     46601     15534  TIP3      H1             42.9304494280       48.2450075841        7.3495236648  W2        16296           0.0000000000
     46602     15534  TIP3      H2             42.4308094280       46.8606975841        7.7043836648  W2        16296           0.0000000000
     46603     15535  TIP3      OH2            43.6861094280       51.4689275841       13.6231036648  W2        16297           0.0000000000
     46604     15535  TIP3      H1             44.0485794280       52.3234875841       13.3895436648  W2        16297           0.0000000000
     46605     15535  TIP3      H2             44.2176294280       51.1770875841       14.3637336648  W2        16297           0.0000000000
     46606     15536  TIP3      OH2            41.8545294280       52.3413275841        6.8532136648  W2        16298           0.0000000000
     46607     15536  TIP3      H1             40.9045794280       52.4470675841        6.9045436648  W2        16298           0.0000000000
     46608     15536  TIP3      H2             42.2063394280       53.1620675841        7.1979636648  W2        16298           0.0000000000
     46609     15537  TIP3      OH2            47.2301894280       47.5679975841       13.3236636648  W2        16299           0.0000000000
     46610     15537  TIP3      H1             46.8043194280       47.3401675841       14.1500636648  W2        16299           0.0000000000
     46611     15537  TIP3      H2             47.8107694280       46.8291775841       13.1411936648  W2        16299           0.0000000000
     46612     15538  TIP3      OH2            49.4330794280       48.4970475841        2.3975636648  W2        16300           0.0000000000
     46613     15538  TIP3      H1             49.7863894280       48.1170275841        3.2019136648  W2        16300           0.0000000000
     46614     15538  TIP3      H2             48.4844294280       48.4035275841        2.4844936648  W2        16300           0.0000000000
     46615     15539  TIP3      OH2            49.8886094280       52.1199475841       15.7931436648  W2        16301           0.0000000000
     46616     15539  TIP3      H1             49.2869294280       51.5642375841       15.2977736648  W2        16301           0.0000000000
     46617     15539  TIP3      H2             50.1699794280       52.7869275841       15.1668836648  W2        16301           0.0000000000
     46618     15540  TIP3      OH2            53.9365194280       52.9762975841        2.5985836648  W2        16302           0.0000000000
     46619     15540  TIP3      H1             54.6803094280       53.5623475841        2.4587436648  W2        16302           0.0000000000
     46620     15540  TIP3      H2             53.2423294280       53.5448775841        2.9318236648  W2        16302           0.0000000000
     46621     15541  TIP3      OH2            38.0111994280       39.3527175841       15.2004036648  W2        16303           0.0000000000
     46622     15541  TIP3      H1             37.1184294280       39.6912575841       15.1328036648  W2        16303           0.0000000000
     46623     15541  TIP3      H2             37.9124794280       38.4973275841       15.6184836648  W2        16303           0.0000000000
     46624     15542  TIP3      OH2            50.2990094280       47.1692475841        4.6243536648  W2        16304           0.0000000000
     46625     15542  TIP3      H1             50.0217694280       46.4411775841        5.1804636648  W2        16304           0.0000000000
     46626     15542  TIP3      H2             51.2263094280       47.2884475841        4.8296136648  W2        16304           0.0000000000
     46627     15543  TIP3      OH2            37.6623994280       51.1571575841       13.6353436648  W2        16305           0.0000000000
     46628     15543  TIP3      H1             37.8794294280       50.2253975841       13.6043136648  W2        16305           0.0000000000
     46629     15543  TIP3      H2             37.9087494280       51.4316575841       14.5186236648  W2        16305           0.0000000000
     46630     15544  TIP3      OH2            43.5238594280       49.6086575841        0.8445636648  W2        16306           0.0000000000
     46631     15544  TIP3      H1             43.7628394280       48.8604675841        0.2974536648  W2        16306           0.0000000000
     46632     15544  TIP3      H2             43.2549894280       49.2208275841        1.6773436648  W2        16306           0.0000000000
     46633     15545  TIP3      OH2            42.4609194280       49.1790375841        3.3008236648  W2        16307           0.0000000000
     46634     15545  TIP3      H1             42.6077194280       48.6590175841        4.0909136648  W2        16307           0.0000000000
     46635     15545  TIP3      H2             42.4580894280       50.0857975841        3.6074136648  W2        16307           0.0000000000
     46636     15546  TIP3      OH2            38.9140294280       46.4313675841        3.8113636648  W2        16308           0.0000000000
     46637     15546  TIP3      H1             38.2279594280       46.7836175841        4.3783336648  W2        16308           0.0000000000
     46638     15546  TIP3      H2             39.4368194280       47.1943275841        3.5647936648  W2        16308           0.0000000000
     46639     15547  TIP3      OH2            46.7455394280       39.0937475841       14.0902636648  W2        16309           0.0000000000
     46640     15547  TIP3      H1             47.4443294280       39.1676175841       14.7402336648  W2        16309           0.0000000000
     46641     15547  TIP3      H2             46.3646794280       38.2292475841       14.2445536648  W2        16309           0.0000000000
     46642     15548  TIP3      OH2            47.5300294280       38.7459175841        5.1874936648  W2        16310           0.0000000000
     46643     15548  TIP3      H1             47.7498594280       39.2174575841        4.3840336648  W2        16310           0.0000000000
     46644     15548  TIP3      H2             48.0884294280       39.1401775841        5.8575536648  W2        16310           0.0000000000
     46645     15549  TIP3      OH2            45.1986394280       50.8763975841        4.0502436648  W2        16311           0.0000000000
     46646     15549  TIP3      H1             44.3822494280       51.3733675841        4.1026736648  W2        16311           0.0000000000
     46647     15549  TIP3      H2             45.7282694280       51.3517475841        3.4101236648  W2        16311           0.0000000000
     46648     15550  TIP3      OH2            44.7300194280       40.4737975841        6.0223336648  W2        16312           0.0000000000
     46649     15550  TIP3      H1             45.5422794280       40.9781175841        6.0685036648  W2        16312           0.0000000000
     46650     15550  TIP3      H2             44.4853194280       40.3287675841        6.9362936648  W2        16312           0.0000000000
     46651     15551  TIP3      OH2            45.2656594280       41.4600675841       15.2069936648  W2        16313           0.0000000000
     46652     15551  TIP3      H1             45.3846894280       42.0336075841       15.9640336648  W2        16313           0.0000000000
     46653     15551  TIP3      H2             45.9211194280       40.7720075841       15.3217736648  W2        16313           0.0000000000
     46654     15552  TIP3      OH2            45.6136894280       37.5550975841        6.9604436648  W2        16314           0.0000000000
     46655     15552  TIP3      H1             45.2670394280       38.1721575841        7.6048736648  W2        16314           0.0000000000
     46656     15552  TIP3      H2             46.2723794280       38.0556675841        6.4789936648  W2        16314           0.0000000000
     46657     15553  TIP3      OH2            42.5369494280       51.9201175841        4.0319336648  W2        16315           0.0000000000
     46658     15553  TIP3      H1             42.6978194280       52.7198675841        3.5311936648  W2        16315           0.0000000000
     46659     15553  TIP3      H2             42.3397294280       52.2267175841        4.9169936648  W2        16315           0.0000000000
     46660     15554  TIP3      OH2            41.2713894280       38.6180375841        3.6476936648  W2        16316           0.0000000000
     46661     15554  TIP3      H1             41.1878694280       39.5063475841        3.9943336648  W2        16316           0.0000000000
     46662     15554  TIP3      H2             42.1614194280       38.3527075841        3.8793736648  W2        16316           0.0000000000
     46663     15555  TIP3      OH2            51.4702394280       39.3670975841       16.0419636648  W2        16317           0.0000000000
     46664     15555  TIP3      H1             50.5538194280       39.6292675841       15.9543336648  W2        16317           0.0000000000
     46665     15555  TIP3      H2             51.8057394280       39.3639975841       15.1454936648  W2        16317           0.0000000000
     46666     15556  TIP3      OH2            50.0723394280       43.1171975841       10.1376936648  W2        16318           0.0000000000
     46667     15556  TIP3      H1             49.2747794280       42.7022175841        9.8091936648  W2        16318           0.0000000000
     46668     15556  TIP3      H2             50.5174494280       42.4265675841       10.6287436648  W2        16318           0.0000000000
     46669     15557  TIP3      OH2            39.5299194280       49.0452575841        2.7081436648  W2        16319           0.0000000000
     46670     15557  TIP3      H1             40.1220694280       49.7447375841        2.9843836648  W2        16319           0.0000000000
     46671     15557  TIP3      H2             39.9892194280       48.6122075841        1.9886036648  W2        16319           0.0000000000
     46672     15558  TIP3      OH2            37.8458394280       41.7095575841        1.8240836648  W2        16320           0.0000000000
     46673     15558  TIP3      H1             37.8010994280       42.6488675841        2.0027836648  W2        16320           0.0000000000
     46674     15558  TIP3      H2             36.9581594280       41.4740475841        1.5542936648  W2        16320           0.0000000000
     46675     15559  TIP3      OH2            51.1587994280       52.3734475841       11.7600436648  W2        16321           0.0000000000
     46676     15559  TIP3      H1             51.0032294280       53.0518875841       11.1029736648  W2        16321           0.0000000000
     46677     15559  TIP3      H2             52.0914394280       52.4453775841       11.9631036648  W2        16321           0.0000000000
     46678     15560  TIP3      OH2            38.6540394280       36.4912175841       10.4971836648  W2        16322           0.0000000000
     46679     15560  TIP3      H1             38.4250194280       36.5504675841        9.5696836648  W2        16322           0.0000000000
     46680     15560  TIP3      H2             38.2113794280       35.6997675841       10.8035936648  W2        16322           0.0000000000
     46681     15561  TIP3      OH2            37.5843694280       50.4319275841        6.6577636648  W2        16323           0.0000000000
     46682     15561  TIP3      H1             36.7522294280       50.9041975841        6.6849036648  W2        16323           0.0000000000
     46683     15561  TIP3      H2             38.1301994280       50.9416875841        6.0590736648  W2        16323           0.0000000000
     46684     15562  TIP3      OH2            45.5620394280       51.4717975841        0.9831636648  W2        16326           0.0000000000
     46685     15562  TIP3      H1             44.9181394280       50.8406575841        1.3045336648  W2        16326           0.0000000000
     46686     15562  TIP3      H2             46.3238694280       50.9405975841        0.7515136648  W2        16326           0.0000000000
     46687     15563  TIP3      OH2            50.1663294280       51.2887875841        1.2169636648  W2        16328           0.0000000000
     46688     15563  TIP3      H1             50.4493694280       50.4943075841        1.6696536648  W2        16328           0.0000000000
     46689     15563  TIP3      H2             50.9061194280       51.5218875841        0.6560736648  W2        16328           0.0000000000
     46690     15564  TIP3      OH2            41.1210594280       47.1982775841        1.0744536648  W2        16330           0.0000000000
     46691     15564  TIP3      H1             41.1854694280       46.4042375841        1.6050936648  W2        16330           0.0000000000
     46692     15564  TIP3      H2             41.7739794280       47.0795575841        0.3846536648  W2        16330           0.0000000000
     46693     15565  TIP3      OH2            46.4733994280       48.2454475841        0.8102536648  W2        16332           0.0000000000
     46694     15565  TIP3      H1             46.2048094280       48.4256575841        1.7111436648  W2        16332           0.0000000000
     46695     15565  TIP3      H2             46.2669594280       47.3200675841        0.6788336648  W2        16332           0.0000000000
     46696     15566  TIP3      OH2            49.1698194280       46.7402475841       15.7578636648  W2        16333           0.0000000000
     46697     15566  TIP3      H1             49.9152994280       47.3286175841       15.6382636648  W2        16333           0.0000000000
     46698     15566  TIP3      H2             48.4124994280       47.3222175841       15.8211736648  W2        16333           0.0000000000
     46699     15567  TIP3      OH2            42.2704394280       45.1708975841        3.3802536648  W2        16335           0.0000000000
     46700     15567  TIP3      H1             41.8106394280       44.6867275841        4.0661036648  W2        16335           0.0000000000
     46701     15567  TIP3      H2             42.5253094280       44.5024375841        2.7443036648  W2        16335           0.0000000000
     46702     15568  TIP3      OH2            41.5593694280       43.0636075841       15.7362136648  W2        16336           0.0000000000
     46703     15568  TIP3      H1             40.9409794280       43.7382675841       16.0166836648  W2        16336           0.0000000000
     46704     15568  TIP3      H2             41.9034894280       43.3849975841       14.9028336648  W2        16336           0.0000000000
     46705     15569  TIP3      OH2            43.3414794280       43.4140775841        1.6425736648  W2        16337           0.0000000000
     46706     15569  TIP3      H1             43.1609794280       43.2591975841        0.7154036648  W2        16337           0.0000000000
     46707     15569  TIP3      H2             44.2915294280       43.5219475841        1.6873636648  W2        16337           0.0000000000
     46708     15570  TIP3      OH2            52.7313094280       45.7684975841        1.0883836648  W2        16339           0.0000000000
     46709     15570  TIP3      H1             52.4577894280       45.3440475841        0.2752136648  W2        16339           0.0000000000
     46710     15570  TIP3      H2             52.7707194280       46.6999475841        0.8714236648  W2        16339           0.0000000000
     46711     15571  TIP3      OH2            41.8987394280       40.4186875841       16.8185236648  W2        16340           0.0000000000
     46712     15571  TIP3      H1             42.0488294280       39.6898175841       16.2164936648  W2        16340           0.0000000000
     46713     15571  TIP3      H2             41.9009794280       41.1958575841       16.2597436648  W2        16340           0.0000000000
     46714     15572  TIP3      OH2            42.3113094280       38.7882675841       14.3112636648  W2        16341           0.0000000000
     46715     15572  TIP3      H1             42.8470594280       39.2399375841       13.6591936648  W2        16341           0.0000000000
     46716     15572  TIP3      H2             41.4592694280       38.6802475841       13.8886736648  W2        16341           0.0000000000
     46717     15573  TIP3      OH2            43.8931494280       44.2278875841       14.5507836648  W2        16342           0.0000000000
     46718     15573  TIP3      H1             44.6436294280       44.0716375841       13.9775636648  W2        16342           0.0000000000
     46719     15573  TIP3      H2             43.5539794280       45.0795475841       14.2753336648  W2        16342           0.0000000000
     46720     15574  TIP3      OH2            49.6254894280       44.8315875841       17.6565836648  W2        16344           0.0000000000
     46721     15574  TIP3      H1             49.3439894280       45.5410475841       17.0789636648  W2        16344           0.0000000000
     46722     15574  TIP3      H2             50.5679194280       44.7588875841       17.5057036648  W2        16344           0.0000000000
     46723     15575  TIP3      OH2            43.1168594280       36.2448375841       14.7426236648  W2        16346           0.0000000000
     46724     15575  TIP3      H1             43.0188194280       37.1911575841       14.6372436648  W2        16346           0.0000000000
     46725     15575  TIP3      H2             42.3744794280       35.8722175841       14.2669736648  W2        16346           0.0000000000
     46726     15576  TIP3      OH2            47.0965694280       39.6937275841       17.3818136648  W2        16348           0.0000000000
     46727     15576  TIP3      H1             46.1491094280       39.7256975841       17.5141436648  W2        16348           0.0000000000
     46728     15576  TIP3      H2             47.4092394280       39.0684375841       18.0356336648  W2        16348           0.0000000000
     46729     15577  TIP3      OH2            43.3386694280       35.5385775841       17.4139036648  W2        16351           0.0000000000
     46730     15577  TIP3      H1             44.0505094280       34.8987975841       17.3998136648  W2        16351           0.0000000000
     46731     15577  TIP3      H2             43.2377094280       35.8054075841       16.5002136648  W2        16351           0.0000000000
     46732     15578  TIP3      OH2            43.2386494280       54.1044475841        2.6439336648  W2        16353           0.0000000000
     46733     15578  TIP3      H1             44.1717194280       54.2623175841        2.7877736648  W2        16353           0.0000000000
     46734     15578  TIP3      H2             42.9745294280       54.7797475841        2.0190836648  W2        16353           0.0000000000
     46735     15579  TIP3      OH2            36.8071394280       48.7408275841        2.1267436648  W2        16354           0.0000000000
     46736     15579  TIP3      H1             37.7210594280       48.8197175841        2.4001336648  W2        16354           0.0000000000
     46737     15579  TIP3      H2             36.8144494280       48.0537875841        1.4603036648  W2        16354           0.0000000000
     46738     15580  TIP3      OH2            35.4561994280       54.1336775841        7.2041336648  W2        16355           0.0000000000
     46739     15580  TIP3      H1             34.8089094280       53.6718475841        6.6712536648  W2        16355           0.0000000000
     46740     15580  TIP3      H2             35.8106594280       53.4620075841        7.7867536648  W2        16355           0.0000000000
     46741     15581  TIP3      OH2            36.3261194280       52.2143775841        9.0087536648  W2        16356           0.0000000000
     46742     15581  TIP3      H1             35.9917994280       51.3341075841        9.1807736648  W2        16356           0.0000000000
     46743     15581  TIP3      H2             36.5483594280       52.5598775841        9.8733136648  W2        16356           0.0000000000
     46744     15582  TIP3      OH2            53.8745994280       53.0240175841       11.9892336648  W2        16357           0.0000000000
     46745     15582  TIP3      H1             53.8532694280       53.2088575841       12.9281736648  W2        16357           0.0000000000
     46746     15582  TIP3      H2             54.5652194280       53.5924175841       11.6483736648  W2        16357           0.0000000000
     46747     15583  TIP3      OH2            53.4378894280       52.5911275841       14.9111436648  W2        16358           0.0000000000
     46748     15583  TIP3      H1             52.9507594280       51.8555375841       14.5398836648  W2        16358           0.0000000000
     46749     15583  TIP3      H2             53.9871594280       52.1975175841       15.5890836648  W2        16358           0.0000000000
     46750     15584  TIP3      OH2            53.1895894280       46.6373075841        5.0634236648  W2        16360           0.0000000000
     46751     15584  TIP3      H1             54.0397294280       47.0583975841        5.1905836648  W2        16360           0.0000000000
     46752     15584  TIP3      H2             53.1950994280       45.8973175841        5.6705636648  W2        16360           0.0000000000
     46753     15585  TIP3      OH2            53.5841494280       44.6910475841        6.8869936648  W2        16361           0.0000000000
     46754     15585  TIP3      H1             52.8576094280       44.2113075841        7.2847536648  W2        16361           0.0000000000
     46755     15585  TIP3      H2             54.1654794280       44.8965175841        7.6191536648  W2        16361           0.0000000000
     46756     15586  TIP3      OH2            53.3432694280       47.4757975841       11.8347536648  W2        16362           0.0000000000
     46757     15586  TIP3      H1             54.1766894280       47.0977975841       11.5541136648  W2        16362           0.0000000000
     46758     15586  TIP3      H2             53.4552994280       48.4189175841       11.7156636648  W2        16362           0.0000000000
     46759     15587  TIP3      OH2            51.8294994280       50.3535475841       14.1415936648  W2        16363           0.0000000000
     46760     15587  TIP3      H1             51.1820294280       50.6786975841       14.7671136648  W2        16363           0.0000000000
     46761     15587  TIP3      H2             51.3118994280       49.9133175841       13.4674236648  W2        16363           0.0000000000
     46762     15588  TIP3      OH2            53.8524594280       44.5918975841        3.2781236648  W2        16364           0.0000000000
     46763     15588  TIP3      H1             53.3305694280       44.9483075841        2.5592136648  W2        16364           0.0000000000
     46764     15588  TIP3      H2             53.8193794280       45.2666775841        3.9562136648  W2        16364           0.0000000000
     46765     15589  TIP3      OH2            52.2013594280       41.8314575841        1.8288336648  W2        16365           0.0000000000
     46766     15589  TIP3      H1             52.2977994280       42.4981575841        1.1488036648  W2        16365           0.0000000000
     46767     15589  TIP3      H2             52.0613194280       41.0160875841        1.3473836648  W2        16365           0.0000000000
     46768     15590  TIP3      OH2            51.3708294280       43.2116975841        7.4498636648  W2        16366           0.0000000000
     46769     15590  TIP3      H1             51.2207094280       42.2665575841        7.4296436648  W2        16366           0.0000000000
     46770     15590  TIP3      H2             51.0172794280       43.4928375841        8.2937736648  W2        16366           0.0000000000
     46771     15591  TIP3      OH2            36.4060694280       45.2899175841       11.4602436648  W2        16367           0.0000000000
     46772     15591  TIP3      H1             36.5903594280       45.2080875841       10.5245336648  W2        16367           0.0000000000
     46773     15591  TIP3      H2             37.2553594280       45.1656175841       11.8838836648  W2        16367           0.0000000000
     46774     15592  TIP3      OH2            52.2271194280       45.1820275841       17.0886936648  W2        16368           0.0000000000
     46775     15592  TIP3      H1             52.8098494280       44.4472575841       17.2804136648  W2        16368           0.0000000000
     46776     15592  TIP3      H2             52.7910494280       45.9540575841       17.1352736648  W2        16368           0.0000000000
     46777     15593  TIP3      OH2            53.7238294280       43.0846075841       17.7732336648  W2        16369           0.0000000000
     46778     15593  TIP3      H1             52.8604994280       42.7058175841       17.6077036648  W2        16369           0.0000000000
     46779     15593  TIP3      H2             54.3281994280       42.3460875841       17.6988136648  W2        16369           0.0000000000
     46780     15594  TIP3      OH2            51.4487394280       39.2394375841        0.9463836648  W2        16370           0.0000000000
     46781     15594  TIP3      H1             52.0593194280       38.8681175841        1.5832036648  W2        16370           0.0000000000
     46782     15594  TIP3      H2             50.6118894280       38.8181275841        1.1423836648  W2        16370           0.0000000000
     46783     15595  TIP3      OH2            51.0813094280       40.7942775841        5.9123736648  W2        16371           0.0000000000
     46784     15595  TIP3      H1             51.3610194280       39.8873175841        6.0365436648  W2        16371           0.0000000000
     46785     15595  TIP3      H2             51.8404794280       41.2284275841        5.5232936648  W2        16371           0.0000000000
     46786     15596  TIP3      OH2            51.6931394280       41.3760175841       11.3482636648  W2        16372           0.0000000000
     46787     15596  TIP3      H1             52.6259394280       41.5880075841       11.3138636648  W2        16372           0.0000000000
     46788     15596  TIP3      H2             51.4578894280       41.4772275841       12.2705636648  W2        16372           0.0000000000
     46789     15597  TIP3      OH2            51.7223294280       42.1125475841       14.1242036648  W2        16373           0.0000000000
     46790     15597  TIP3      H1             50.8794594280       42.3805875841       14.4901836648  W2        16373           0.0000000000
     46791     15597  TIP3      H2             52.1647594280       42.9347375841       13.9133136648  W2        16373           0.0000000000
     46792     15598  TIP3      OH2            36.0035494280       40.5604175841       17.6011236648  W2        16374           0.0000000000
     46793     15598  TIP3      H1             36.9230394280       40.4382475841       17.8374336648  W2        16374           0.0000000000
     46794     15598  TIP3      H2             35.5539994280       39.8103875841       17.9904736648  W2        16374           0.0000000000
     46795     15599  TIP3      OH2            51.6947894280       38.0572075841        5.9605736648  W2        16376           0.0000000000
     46796     15599  TIP3      H1             51.8772894280       37.6083575841        6.7860736648  W2        16376           0.0000000000
     46797     15599  TIP3      H2             51.0950794280       37.4726475841        5.4970336648  W2        16376           0.0000000000
     46798     15600  TIP3      OH2            37.2247994280       38.8725775841       10.4924136648  W2        16377           0.0000000000
     46799     15600  TIP3      H1             37.6699594280       38.0808275841       10.7943836648  W2        16377           0.0000000000
     46800     15600  TIP3      H2             37.6910994280       39.5890975841       10.9229736648  W2        16377           0.0000000000
     46801     15601  TIP3      OH2            35.5288294280       41.8718775841       11.5614336648  W2        16378           0.0000000000
     46802     15601  TIP3      H1             36.0208094280       41.6509275841       10.7706336648  W2        16378           0.0000000000
     46803     15601  TIP3      H2             35.8909194280       42.7122175841       11.8423836648  W2        16378           0.0000000000
     46804     15602  TIP3      OH2            53.5614094280       38.1250175841        2.4886036648  W2        16380           0.0000000000
     46805     15602  TIP3      H1             53.9736694280       37.4035875841        2.0134036648  W2        16380           0.0000000000
     46806     15602  TIP3      H2             54.2430594280       38.7944775841        2.5470336648  W2        16380           0.0000000000
     46807     15603  TIP3      OH2            35.8424794280       38.1297875841        5.6156736648  W2        16381           0.0000000000
     46808     15603  TIP3      H1             34.9173194280       38.3384475841        5.4862236648  W2        16381           0.0000000000
     46809     15603  TIP3      H2             36.2964694280       38.6138675841        4.9259036648  W2        16381           0.0000000000
     46810     15604  TIP3      OH2            50.6131994280       53.1139575841        7.5614136648  W2        16382           0.0000000000
     46811     15604  TIP3      H1             51.2654894280       52.7661675841        6.9533236648  W2        16382           0.0000000000
     46812     15604  TIP3      H2             51.1235794280       53.6022775841        8.2073836648  W2        16382           0.0000000000
     46813     15605  TIP3      OH2            35.8060194280       36.8676875841       13.9599236648  W2        16383           0.0000000000
     46814     15605  TIP3      H1             35.1410694280       36.6217175841       14.6030136648  W2        16383           0.0000000000
     46815     15605  TIP3      H2             35.3631494280       37.4897275841       13.3827236648  W2        16383           0.0000000000
     46816     15606  TIP3      OH2            40.9522394280       51.0172175841       14.3629036648  W2        16385           0.0000000000
     46817     15606  TIP3      H1             40.5273494280       51.8270675841       14.0803636648  W2        16385           0.0000000000
     46818     15606  TIP3      H2             41.8565194280       51.1026275841       14.0608836648  W2        16385           0.0000000000
     46819     15607  TIP3      OH2            45.2633794280       52.4162175841       17.3222736648  W2        16386           0.0000000000
     46820     15607  TIP3      H1             45.4481294280       52.0828275841       18.2003036648  W2        16386           0.0000000000
     46821     15607  TIP3      H2             46.1098294280       52.7260775841       17.0001936648  W2        16386           0.0000000000
     46822     15608  TIP3      OH2            47.6084194280       53.7021075841       16.5664136648  W2        16387           0.0000000000
     46823     15608  TIP3      H1             48.2853094280       53.0693375841       16.3263336648  W2        16387           0.0000000000
     46824     15608  TIP3      H2             47.9302994280       54.1031575841       17.3737436648  W2        16387           0.0000000000
     46825     15609  TIP3      OH2            52.5257994280       36.2916575841       15.6459136648  W2        16388           0.0000000000
     46826     15609  TIP3      H1             51.7131494280       36.6166875841       15.2583836648  W2        16388           0.0000000000
     46827     15609  TIP3      H2             52.7586494280       35.5315075841       15.1128236648  W2        16388           0.0000000000
     46828     15610  TIP3      OH2            38.3539094280       54.2736075841       14.4104336648  W2        16389           0.0000000000
     46829     15610  TIP3      H1             37.6335494280       54.7137075841       13.9592036648  W2        16389           0.0000000000
     46830     15610  TIP3      H2             37.9883094280       54.0230775841       15.2588336648  W2        16389           0.0000000000
     46831     15611  TIP3      OH2            40.8211694280       53.8739975841       13.4401536648  W2        16390           0.0000000000
     46832     15611  TIP3      H1             39.9563894280       53.9458475841       13.8441636648  W2        16390           0.0000000000
     46833     15611  TIP3      H2             40.7660694280       54.4207275841       12.6564036648  W2        16390           0.0000000000
     46834     15612  TIP3      OH2            45.5317294280       53.7618875841       12.6157536648  W2        16391           0.0000000000
     46835     15612  TIP3      H1             45.0751294280       54.2908575841       11.9615936648  W2        16391           0.0000000000
     46836     15612  TIP3      H2             45.6945294280       54.3650275841       13.3409836648  W2        16391           0.0000000000
     46837     15613  TIP3      OH2            47.8593594280       52.6398475841       13.5607836648  W2        16392           0.0000000000
     46838     15613  TIP3      H1             46.9547294280       52.8048675841       13.2949936648  W2        16392           0.0000000000
     46839     15613  TIP3      H2             48.2882194280       53.4930675841       13.4951236648  W2        16392           0.0000000000
     46840     15614  TIP3      OH2            50.4635494280       54.2097575841       13.8555636648  W2        16393           0.0000000000
     46841     15614  TIP3      H1             50.2817494280       55.1256475841       13.6450536648  W2        16393           0.0000000000
     46842     15614  TIP3      H2             50.6403294280       53.7994675841       13.0090236648  W2        16393           0.0000000000
     46843     15615  TIP3      OH2            37.7687194280       52.8968575841       11.3206136648  W2        16394           0.0000000000
     46844     15615  TIP3      H1             37.7503194280       52.4713675841       12.1778436648  W2        16394           0.0000000000
     46845     15615  TIP3      H2             38.5735094280       52.5783575841       10.9118336648  W2        16394           0.0000000000
     46846     15616  TIP3      OH2            39.9100294280       51.6067275841        9.9756036648  W2        16395           0.0000000000
     46847     15616  TIP3      H1             39.6910994280       50.6904675841       10.1452036648  W2        16395           0.0000000000
     46848     15616  TIP3      H2             40.7342494280       51.7467675841       10.4417436648  W2        16395           0.0000000000
     46849     15617  TIP3      OH2            42.4472794280       52.0766575841       10.8244036648  W2        16396           0.0000000000
     46850     15617  TIP3      H1             42.6598494280       51.1885575841       10.5374936648  W2        16396           0.0000000000
     46851     15617  TIP3      H2             42.5117894280       52.0424275841       11.7788036648  W2        16396           0.0000000000
     46852     15618  TIP3      OH2            45.9556494280       37.7407175841        9.9687336648  W2        16397           0.0000000000
     46853     15618  TIP3      H1             45.2813294280       37.1112775841       10.2243136648  W2        16397           0.0000000000
     46854     15618  TIP3      H2             46.5195694280       37.2566075841        9.3655236648  W2        16397           0.0000000000
     46855     15619  TIP3      OH2            51.0983694280       35.8481175841       10.0814436648  W2        16398           0.0000000000
     46856     15619  TIP3      H1             51.7021294280       36.3956575841        9.5795436648  W2        16398           0.0000000000
     46857     15619  TIP3      H2             50.2285694280       36.1671575841        9.8408536648  W2        16398           0.0000000000
     46858     15620  TIP3      OH2            52.8254094280       36.9869875841        8.4145336648  W2        16399           0.0000000000
     46859     15620  TIP3      H1             53.4371594280       36.4725575841        7.8878936648  W2        16399           0.0000000000
     46860     15620  TIP3      H2             53.2077494280       37.8641975841        8.4379736648  W2        16399           0.0000000000
     46861     15621  TIP3      OH2            38.2823994280       36.3747475841        7.7907236648  W2        16400           0.0000000000
     46862     15621  TIP3      H1             37.5053794280       36.1402375841        7.2833136648  W2        16400           0.0000000000
     46863     15621  TIP3      H2             38.8127594280       35.5779575841        7.7995236648  W2        16400           0.0000000000
     46864     15622  TIP3      OH2            37.1187394280       36.1725575841        3.5943336648  W2        16401           0.0000000000
     46865     15622  TIP3      H1             37.5578094280       36.7836075841        3.0026836648  W2        16401           0.0000000000
     46866     15622  TIP3      H2             36.4849794280       36.7109675841        4.0683336648  W2        16401           0.0000000000
     46867     15623  TIP3      OH2            42.8616594280       36.3014575841        7.6040336648  W2        16402           0.0000000000
     46868     15623  TIP3      H1             43.7359994280       36.6898875841        7.5744636648  W2        16402           0.0000000000
     46869     15623  TIP3      H2             42.7257394280       36.0862375841        8.5267536648  W2        16402           0.0000000000
     46870     15624  TIP3      OH2            48.4184994280       36.3314375841        9.2532036648  W2        16403           0.0000000000
     46871     15624  TIP3      H1             48.4946594280       36.4265975841        8.3038036648  W2        16403           0.0000000000
     46872     15624  TIP3      H2             48.1434194280       35.4237275841        9.3821136648  W2        16403           0.0000000000
     46873     15625  TIP3      OH2            49.7717594280       36.3572175841        4.9457036648  W2        16404           0.0000000000
     46874     15625  TIP3      H1             49.0688694280       36.9721375841        4.7358436648  W2        16404           0.0000000000
     46875     15625  TIP3      H2             49.3268994280       35.5198875841        5.0767936648  W2        16404           0.0000000000
     46876     15626  TIP3      OH2            37.0196894280       52.1207775841        4.4918436648  W2        16405           0.0000000000
     46877     15626  TIP3      H1             36.3346794280       52.0826675841        3.8243536648  W2        16405           0.0000000000
     46878     15626  TIP3      H2             37.0234094280       53.0335375841        4.7800536648  W2        16405           0.0000000000
     46879     15627  TIP3      OH2            38.9796494280       38.0887075841        2.0367436648  W2        16406           0.0000000000
     46880     15627  TIP3      H1             39.4709894280       37.4589475841        1.5092936648  W2        16406           0.0000000000
     46881     15627  TIP3      H2             39.6032794280       38.3846475841        2.6998636648  W2        16406           0.0000000000
     46882     15628  TIP3      OH2            44.0056594280       38.3818575841        4.4937936648  W2        16407           0.0000000000
     46883     15628  TIP3      H1             44.1837894280       37.7351775841        5.1766536648  W2        16407           0.0000000000
     46884     15628  TIP3      H2             43.9522794280       39.2156275841        4.9609036648  W2        16407           0.0000000000
     46885     15629  TIP3      OH2            45.8840394280       53.3302675841        2.8894636648  W2        16408           0.0000000000
     46886     15629  TIP3      H1             46.7500594280       53.6970075841        2.7112836648  W2        16408           0.0000000000
     46887     15629  TIP3      H2             45.6373194280       52.8910675841        2.0755436648  W2        16408           0.0000000000
     46888     15630  TIP3      OH2            52.5929994280       52.8932975841        5.5685736648  W2        16409           0.0000000000
     46889     15630  TIP3      H1             52.3987094280       52.1455075841        5.0035336648  W2        16409           0.0000000000
     46890     15630  TIP3      H2             52.5540094280       53.6513075841        4.9853636648  W2        16409           0.0000000000
     46891     15631  TIP3      OH2            38.2401994280       36.8889375841       17.3083436648  W2        16410           0.0000000000
     46892     15631  TIP3      H1             37.8740194280       36.1231975841       17.7508136648  W2        16410           0.0000000000
     46893     15631  TIP3      H2             39.1530494280       36.9179575841       17.5948536648  W2        16410           0.0000000000
     46894     15632  TIP3      OH2            38.8378094280       53.0408575841        1.5170536648  W2        16412           0.0000000000
     46895     15632  TIP3      H1             38.5702694280       53.3271475841        2.3903636648  W2        16412           0.0000000000
     46896     15632  TIP3      H2             39.6090694280       52.4947775841        1.6693036648  W2        16412           0.0000000000
     46897     15633  TIP3      OH2            51.8106194280       51.6445375841       17.7187536648  W2        16414           0.0000000000
     46898     15633  TIP3      H1             51.0288094280       51.4583375841       17.1988136648  W2        16414           0.0000000000
     46899     15633  TIP3      H2             51.7386094280       52.5739675841       17.9360036648  W2        16414           0.0000000000
     46900     15634  TIP3      OH2            57.5182894280       44.4002575841       12.7612836648  W2        16415           0.0000000000
     46901     15634  TIP3      H1             57.5594994280       43.7745875841       13.4845236648  W2        16415           0.0000000000
     46902     15634  TIP3      H2             58.2210594280       45.0241175841       12.9433236648  W2        16415           0.0000000000
     46903     15635  TIP3      OH2            58.4415994280       48.8501475841       11.2961936648  W2        16416           0.0000000000
     46904     15635  TIP3      H1             58.0721194280       48.0481975841       10.9266236648  W2        16416           0.0000000000
     46905     15635  TIP3      H2             59.3827094280       48.6816375841       11.3425336648  W2        16416           0.0000000000
     46906     15636  TIP3      OH2            55.0516494280       42.5104075841        6.6890736648  W2        16417           0.0000000000
     46907     15636  TIP3      H1             54.6039894280       43.3562775841        6.6707236648  W2        16417           0.0000000000
     46908     15636  TIP3      H2             54.4907694280       41.9308275841        6.1735836648  W2        16417           0.0000000000
     46909     15637  TIP3      OH2            55.7622594280       44.6723675841        8.8148736648  W2        16418           0.0000000000
     46910     15637  TIP3      H1             55.9756094280       43.9025275841        9.3421736648  W2        16418           0.0000000000
     46911     15637  TIP3      H2             56.5000194280       44.7620375841        8.2116336648  W2        16418           0.0000000000
     46912     15638  TIP3      OH2            56.4549094280       42.1106475841        9.9364936648  W2        16419           0.0000000000
     46913     15638  TIP3      H1             57.1085694280       41.5608175841       10.3685036648  W2        16419           0.0000000000
     46914     15638  TIP3      H2             56.4788394280       41.8365475841        9.0196936648  W2        16419           0.0000000000
     46915     15639  TIP3      OH2            58.2386794280       40.5240875841       11.2006536648  W2        16420           0.0000000000
     46916     15639  TIP3      H1             58.8523094280       41.1568475841       11.5738936648  W2        16420           0.0000000000
     46917     15639  TIP3      H2             58.7507494280       40.0515875841       10.5443436648  W2        16420           0.0000000000
     46918     15640  TIP3      OH2            55.7426094280       47.9425675841        5.1048836648  W2        16421           0.0000000000
     46919     15640  TIP3      H1             55.4706994280       48.1716675841        4.2161736648  W2        16421           0.0000000000
     46920     15640  TIP3      H2             55.7881794280       48.7804475841        5.5654136648  W2        16421           0.0000000000
     46921     15641  TIP3      OH2            58.1556594280       44.9808675841       15.6148536648  W2        16422           0.0000000000
     46922     15641  TIP3      H1             58.2259794280       45.6315475841       16.3133536648  W2        16422           0.0000000000
     46923     15641  TIP3      H2             57.2648794280       45.0836175841       15.2799436648  W2        16422           0.0000000000
     46924     15642  TIP3      OH2            55.0723294280       47.0472775841       14.4398536648  W2        16423           0.0000000000
     46925     15642  TIP3      H1             54.5711694280       47.0192175841       13.6248236648  W2        16423           0.0000000000
     46926     15642  TIP3      H2             55.0776994280       46.1415975841       14.7495836648  W2        16423           0.0000000000
     46927     15643  TIP3      OH2            54.8225994280       49.8276575841       11.3238736648  W2        16424           0.0000000000
     46928     15643  TIP3      H1             55.7686594280       49.6833575841       11.3048236648  W2        16424           0.0000000000
     46929     15643  TIP3      H2             54.7102294280       50.6119375841       11.8609936648  W2        16424           0.0000000000
     46930     15644  TIP3      OH2            58.0668094280       52.6286175841        7.4693436648  W2        16425           0.0000000000
     46931     15644  TIP3      H1             58.2188494280       52.2806575841        8.3479936648  W2        16425           0.0000000000
     46932     15644  TIP3      H2             57.2158494280       52.2723475841        7.2140636648  W2        16425           0.0000000000
     46933     15645  TIP3      OH2            57.3213794280       48.3708175841       15.4831336648  W2        16426           0.0000000000
     46934     15645  TIP3      H1             57.5375094280       48.0093775841       16.3427136648  W2        16426           0.0000000000
     46935     15645  TIP3      H2             56.4658494280       47.9961975841       15.2734836648  W2        16426           0.0000000000
     46936     15646  TIP3      OH2            57.7812394280       42.1266675841       14.4407736648  W2        16427           0.0000000000
     46937     15646  TIP3      H1             57.7431794280       42.5268275841       15.3094836648  W2        16427           0.0000000000
     46938     15646  TIP3      H2             57.2903494280       41.3099075841       14.5310636648  W2        16427           0.0000000000
     46939     15647  TIP3      OH2            54.3893194280       39.2428475841        8.2912436648  W2        16428           0.0000000000
     46940     15647  TIP3      H1             55.0200894280       39.2140575841        9.0106336648  W2        16428           0.0000000000
     46941     15647  TIP3      H2             54.8387494280       38.8177175841        7.5608336648  W2        16428           0.0000000000
     46942     15648  TIP3      OH2            55.6635294280       39.9890475841        3.7152836648  W2        16429           0.0000000000
     46943     15648  TIP3      H1             56.1376994280       40.5800375841        3.1303736648  W2        16429           0.0000000000
     46944     15648  TIP3      H2             54.9461694280       40.5193375841        4.0622936648  W2        16429           0.0000000000
     46945     15649  TIP3      OH2            57.4379694280       41.0837075841        7.3987436648  W2        16430           0.0000000000
     46946     15649  TIP3      H1             56.5487694280       41.1832575841        7.0587036648  W2        16430           0.0000000000
     46947     15649  TIP3      H2             57.7344594280       40.2420075841        7.0525336648  W2        16430           0.0000000000
     46948     15650  TIP3      OH2            57.9003094280       46.8353775841       17.7209736648  W2        16431           0.0000000000
     46949     15650  TIP3      H1             58.6325494280       47.0899675841       18.2824236648  W2        16431           0.0000000000
     46950     15650  TIP3      H2             57.1201794280       47.0399175841       18.2365136648  W2        16431           0.0000000000
     46951     15651  TIP3      OH2            58.2252794280       46.1387575841       10.3274136648  W2        16432           0.0000000000
     46952     15651  TIP3      H1             58.9699994280       46.1363275841        9.7260636648  W2        16432           0.0000000000
     46953     15651  TIP3      H2             58.3029394280       45.3151375841       10.8089236648  W2        16432           0.0000000000
     46954     15652  TIP3      OH2            55.2332494280       44.5994475841       15.6422636648  W2        16433           0.0000000000
     46955     15652  TIP3      H1             55.4561094280       44.1814075841       16.4740136648  W2        16433           0.0000000000
     46956     15652  TIP3      H2             54.6312594280       43.9869475841       15.2195436648  W2        16433           0.0000000000
     46957     15653  TIP3      OH2            56.3549894280       44.5189875841        2.3188036648  W2        16434           0.0000000000
     46958     15653  TIP3      H1             56.9709794280       45.1457075841        2.6982836648  W2        16434           0.0000000000
     46959     15653  TIP3      H2             55.4932494280       44.8349675841        2.5904536648  W2        16434           0.0000000000
     46960     15654  TIP3      OH2            56.8671994280       39.3527175841       15.2004036648  W2        16435           0.0000000000
     46961     15654  TIP3      H1             55.9744294280       39.6912575841       15.1328036648  W2        16435           0.0000000000
     46962     15654  TIP3      H2             56.7684794280       38.4973275841       15.6184836648  W2        16435           0.0000000000
     46963     15655  TIP3      OH2            56.5183994280       51.1571575841       13.6353436648  W2        16436           0.0000000000
     46964     15655  TIP3      H1             56.7354294280       50.2253975841       13.6043136648  W2        16436           0.0000000000
     46965     15655  TIP3      H2             56.7647494280       51.4316575841       14.5186236648  W2        16436           0.0000000000
     46966     15656  TIP3      OH2            57.7700294280       46.4313675841        3.8113636648  W2        16437           0.0000000000
     46967     15656  TIP3      H1             57.0839594280       46.7836175841        4.3783336648  W2        16437           0.0000000000
     46968     15656  TIP3      H2             58.2928194280       47.1943275841        3.5647936648  W2        16437           0.0000000000
     46969     15657  TIP3      OH2            58.3859194280       49.0452575841        2.7081436648  W2        16438           0.0000000000
     46970     15657  TIP3      H1             58.9780694280       49.7447375841        2.9843836648  W2        16438           0.0000000000
     46971     15657  TIP3      H2             58.8452194280       48.6122075841        1.9886036648  W2        16438           0.0000000000
     46972     15658  TIP3      OH2            56.7018394280       41.7095575841        1.8240836648  W2        16439           0.0000000000
     46973     15658  TIP3      H1             56.6570994280       42.6488675841        2.0027836648  W2        16439           0.0000000000
     46974     15658  TIP3      H2             55.8141594280       41.4740475841        1.5542936648  W2        16439           0.0000000000
     46975     15659  TIP3      OH2            57.5100394280       36.4912175841       10.4971836648  W2        16440           0.0000000000
     46976     15659  TIP3      H1             57.2810194280       36.5504675841        9.5696836648  W2        16440           0.0000000000
     46977     15659  TIP3      H2             57.0673794280       35.6997675841       10.8035936648  W2        16440           0.0000000000
     46978     15660  TIP3      OH2            56.4403694280       50.4319275841        6.6577636648  W2        16441           0.0000000000
     46979     15660  TIP3      H1             55.6082294280       50.9041975841        6.6849036648  W2        16441           0.0000000000
     46980     15660  TIP3      H2             56.9861994280       50.9416875841        6.0590736648  W2        16441           0.0000000000
     46981     15661  TIP3      OH2            55.6631394280       48.7408275841        2.1267436648  W2        16446           0.0000000000
     46982     15661  TIP3      H1             56.5770594280       48.8197175841        2.4001336648  W2        16446           0.0000000000
     46983     15661  TIP3      H2             55.6704494280       48.0537875841        1.4603036648  W2        16446           0.0000000000
     46984     15662  TIP3      OH2            54.3121994280       54.1336775841        7.2041336648  W2        16447           0.0000000000
     46985     15662  TIP3      H1             53.6649094280       53.6718475841        6.6712536648  W2        16447           0.0000000000
     46986     15662  TIP3      H2             54.6666594280       53.4620075841        7.7867536648  W2        16447           0.0000000000
     46987     15663  TIP3      OH2            55.1821194280       52.2143775841        9.0087536648  W2        16448           0.0000000000
     46988     15663  TIP3      H1             54.8477994280       51.3341075841        9.1807736648  W2        16448           0.0000000000
     46989     15663  TIP3      H2             55.4043594280       52.5598775841        9.8733136648  W2        16448           0.0000000000
     46990     15664  TIP3      OH2            55.2620694280       45.2899175841       11.4602436648  W2        16449           0.0000000000
     46991     15664  TIP3      H1             55.4463594280       45.2080875841       10.5245336648  W2        16449           0.0000000000
     46992     15664  TIP3      H2             56.1113594280       45.1656175841       11.8838836648  W2        16449           0.0000000000
     46993     15665  TIP3      OH2            54.8595494280       40.5604175841       17.6011236648  W2        16450           0.0000000000
     46994     15665  TIP3      H1             55.7790394280       40.4382475841       17.8374336648  W2        16450           0.0000000000
     46995     15665  TIP3      H2             54.4099994280       39.8103875841       17.9904736648  W2        16450           0.0000000000
     46996     15666  TIP3      OH2            56.0807994280       38.8725775841       10.4924136648  W2        16451           0.0000000000
     46997     15666  TIP3      H1             56.5259594280       38.0808275841       10.7943836648  W2        16451           0.0000000000
     46998     15666  TIP3      H2             56.5470994280       39.5890975841       10.9229736648  W2        16451           0.0000000000
     46999     15667  TIP3      OH2            54.3848294280       41.8718775841       11.5614336648  W2        16452           0.0000000000
     47000     15667  TIP3      H1             54.8768094280       41.6509275841       10.7706336648  W2        16452           0.0000000000
     47001     15667  TIP3      H2             54.7469194280       42.7122175841       11.8423836648  W2        16452           0.0000000000
     47002     15668  TIP3      OH2            54.6984794280       38.1297875841        5.6156736648  W2        16453           0.0000000000
     47003     15668  TIP3      H1             53.7733194280       38.3384475841        5.4862236648  W2        16453           0.0000000000
     47004     15668  TIP3      H2             55.1524694280       38.6138675841        4.9259036648  W2        16453           0.0000000000
     47005     15669  TIP3      OH2            54.6620194280       36.8676875841       13.9599236648  W2        16454           0.0000000000
     47006     15669  TIP3      H1             53.9970694280       36.6217175841       14.6030136648  W2        16454           0.0000000000
     47007     15669  TIP3      H2             54.2191494280       37.4897275841       13.3827236648  W2        16454           0.0000000000
     47008     15670  TIP3      OH2            57.2099094280       54.2736075841       14.4104336648  W2        16456           0.0000000000
     47009     15670  TIP3      H1             56.4895494280       54.7137075841       13.9592036648  W2        16456           0.0000000000
     47010     15670  TIP3      H2             56.8443094280       54.0230775841       15.2588336648  W2        16456           0.0000000000
     47011     15671  TIP3      OH2            56.6247194280       52.8968575841       11.3206136648  W2        16457           0.0000000000
     47012     15671  TIP3      H1             56.6063194280       52.4713675841       12.1778436648  W2        16457           0.0000000000
     47013     15671  TIP3      H2             57.4295094280       52.5783575841       10.9118336648  W2        16457           0.0000000000
     47014     15672  TIP3      OH2            57.1383994280       36.3747475841        7.7907236648  W2        16458           0.0000000000
     47015     15672  TIP3      H1             56.3613794280       36.1402375841        7.2833136648  W2        16458           0.0000000000
     47016     15672  TIP3      H2             57.6687594280       35.5779575841        7.7995236648  W2        16458           0.0000000000
     47017     15673  TIP3      OH2            55.9747394280       36.1725575841        3.5943336648  W2        16459           0.0000000000
     47018     15673  TIP3      H1             56.4138094280       36.7836075841        3.0026836648  W2        16459           0.0000000000
     47019     15673  TIP3      H2             55.3409794280       36.7109675841        4.0683336648  W2        16459           0.0000000000
     47020     15674  TIP3      OH2            55.8756894280       52.1207775841        4.4918436648  W2        16460           0.0000000000
     47021     15674  TIP3      H1             55.1906794280       52.0826675841        3.8243536648  W2        16460           0.0000000000
     47022     15674  TIP3      H2             55.8794094280       53.0335375841        4.7800536648  W2        16460           0.0000000000
     47023     15675  TIP3      OH2            57.8356494280       38.0887075841        2.0367436648  W2        16461           0.0000000000
     47024     15675  TIP3      H1             58.3269894280       37.4589475841        1.5092936648  W2        16461           0.0000000000
     47025     15675  TIP3      H2             58.4592794280       38.3846475841        2.6998636648  W2        16461           0.0000000000
     47026     15676  TIP3      OH2            57.0961994280       36.8889375841       17.3083436648  W2        16462           0.0000000000
     47027     15676  TIP3      H1             56.7300194280       36.1231975841       17.7508136648  W2        16462           0.0000000000
     47028     15676  TIP3      H2             58.0090494280       36.9179575841       17.5948536648  W2        16462           0.0000000000
     47029     15677  TIP3      OH2            57.6938094280       53.0408575841        1.5170536648  W2        16463           0.0000000000
     47030     15677  TIP3      H1             57.4262694280       53.3271475841        2.3903636648  W2        16463           0.0000000000
     47031     15677  TIP3      H2             58.4650694280       52.4947775841        1.6693036648  W2        16463           0.0000000000
     47032     15678  TIP3      OH2           -40.9337905720       57.6757175841       12.4350136648  W2        16464           0.0000000000
     47033     15678  TIP3      H1            -40.8845705720       58.2858375841       13.1709236648  W2        16464           0.0000000000
     47034     15678  TIP3      H2            -40.5082805720       58.1368075841       11.7121236648  W2        16464           0.0000000000
     47035     15679  TIP3      OH2           -53.3012405720       58.5700675841        9.1743536648  W2        16465           0.0000000000
     47036     15679  TIP3      H1            -53.2581305720       59.4299175841        8.7559836648  W2        16465           0.0000000000
     47037     15679  TIP3      H2            -53.7588305720       58.0175375841        8.5406736648  W2        16465           0.0000000000
     47038     15680  TIP3      OH2           -54.4910505720       57.4879075841       13.2484336648  W2        16466           0.0000000000
     47039     15680  TIP3      H1            -54.7098805720       58.0179675841       12.4820336648  W2        16466           0.0000000000
     47040     15680  TIP3      H2            -55.1589605720       57.7144575841       13.8955736648  W2        16466           0.0000000000
     47041     15681  TIP3      OH2           -43.8151305720       57.9915575841        9.5557736648  W2        16467           0.0000000000
     47042     15681  TIP3      H1            -44.0303305720       57.2258975841       10.0883736648  W2        16467           0.0000000000
     47043     15681  TIP3      H2            -43.1593905720       58.4640175841       10.0686236648  W2        16467           0.0000000000
     47044     15682  TIP3      OH2           -43.4677205720       56.7066875841       13.2351236648  W2        16468           0.0000000000
     47045     15682  TIP3      H1            -44.2038005720       57.3173975841       13.1972536648  W2        16468           0.0000000000
     47046     15682  TIP3      H2            -42.7843205720       57.1215875841       12.7087636648  W2        16468           0.0000000000
     47047     15683  TIP3      OH2           -50.4645805720       54.7934175841       10.7009236648  W2        16469           0.0000000000
     47048     15683  TIP3      H1            -50.5821605720       53.8450175841       10.6467536648  W2        16469           0.0000000000
     47049     15683  TIP3      H2            -51.3195705720       55.1260275841       10.9740336648  W2        16469           0.0000000000
     47050     15684  TIP3      OH2           -42.2225305720       54.7526375841        3.6511836648  W2        16470           0.0000000000
     47051     15684  TIP3      H1            -43.1224605720       54.8915375841        3.9462436648  W2        16470           0.0000000000
     47052     15684  TIP3      H2            -41.9706905720       55.5840975841        3.2493536648  W2        16470           0.0000000000
     47053     15685  TIP3      OH2           -53.1958205720       55.6968675841       11.4785536648  W2        16471           0.0000000000
     47054     15685  TIP3      H1            -54.0574505720       55.6096875841       11.0708436648  W2        16471           0.0000000000
     47055     15685  TIP3      H2            -53.2182505720       56.5528775841       11.9063136648  W2        16471           0.0000000000
     47056     15686  TIP3      OH2           -48.5330405720       55.4189075841       14.8532536648  W2        16472           0.0000000000
     47057     15686  TIP3      H1            -48.1127305720       55.0036175841       15.6063136648  W2        16472           0.0000000000
     47058     15686  TIP3      H2            -49.4660805720       55.2402375841       14.9704536648  W2        16472           0.0000000000
     47059     15687  TIP3      OH2           -48.8713105720       57.9112475841        2.1383336648  W2        16473           0.0000000000
     47060     15687  TIP3      H1            -49.1248305720       57.9304075841        3.0611436648  W2        16473           0.0000000000
     47061     15687  TIP3      H2            -49.1281005720       57.0397875841        1.8369536648  W2        16473           0.0000000000
     47062     15688  TIP3      OH2           -51.9890205720       58.3568975841        1.2393736648  W2        16474           0.0000000000
     47063     15688  TIP3      H1            -52.4199505720       57.9119075841        1.9691136648  W2        16474           0.0000000000
     47064     15688  TIP3      H2            -52.7071505720       58.7285275841        0.7271236648  W2        16474           0.0000000000
     47065     15689  TIP3      OH2           -58.7466805720       58.0988475841        8.2912436648  W2        16475           0.0000000000
     47066     15689  TIP3      H1            -58.1159105720       58.0700575841        9.0106336648  W2        16475           0.0000000000
     47067     15689  TIP3      H2            -58.2972505720       57.6737175841        7.5608336648  W2        16475           0.0000000000
     47068     15690  TIP3      OH2           -50.5263705720       58.3110775841        8.5719836648  W2        16476           0.0000000000
     47069     15690  TIP3      H1            -51.4372605720       58.3677575841        8.8605836648  W2        16476           0.0000000000
     47070     15690  TIP3      H2            -50.0210805720       58.2506275841        9.3827036648  W2        16476           0.0000000000
     47071     15691  TIP3      OH2           -46.1211805720       57.5457075841       11.8361636648  W2        16477           0.0000000000
     47072     15691  TIP3      H1            -46.7980205720       57.6770175841       12.5001336648  W2        16477           0.0000000000
     47073     15691  TIP3      H2            -46.6066905720       57.3906575841       11.0259336648  W2        16477           0.0000000000
     47074     15692  TIP3      OH2           -54.2044305720       57.2349875841        6.8774236648  W2        16478           0.0000000000
     47075     15692  TIP3      H1            -54.5214805720       56.3325175841        6.8419636648  W2        16478           0.0000000000
     47076     15692  TIP3      H2            -53.4230205720       57.2367275841        6.3245836648  W2        16478           0.0000000000
     47077     15693  TIP3      OH2           -46.1378705720       58.5137475841        2.7568836648  W2        16479           0.0000000000
     47078     15693  TIP3      H1            -47.0764505720       58.6253075841        2.6057636648  W2        16479           0.0000000000
     47079     15693  TIP3      H2            -45.8406605720       59.3704375841        3.0634536648  W2        16479           0.0000000000
     47080     15694  TIP3      OH2           -56.2688005720       58.2087175841       15.2004036648  W2        16480           0.0000000000
     47081     15694  TIP3      H1            -57.1615705720       58.5472575841       15.1328036648  W2        16480           0.0000000000
     47082     15694  TIP3      H2            -56.3675205720       57.3533275841       15.6184836648  W2        16480           0.0000000000
     47083     15695  TIP3      OH2           -47.5344605720       57.9497475841       14.0902636648  W2        16481           0.0000000000
     47084     15695  TIP3      H1            -46.8356705720       58.0236175841       14.7402336648  W2        16481           0.0000000000
     47085     15695  TIP3      H2            -47.9153205720       57.0852475841       14.2445536648  W2        16481           0.0000000000
     47086     15696  TIP3      OH2           -46.7499705720       57.6019175841        5.1874936648  W2        16482           0.0000000000
     47087     15696  TIP3      H1            -46.5301405720       58.0734575841        4.3840336648  W2        16482           0.0000000000
     47088     15696  TIP3      H2            -46.1915705720       57.9961775841        5.8575536648  W2        16482           0.0000000000
     47089     15697  TIP3      OH2           -48.6663105720       56.4110975841        6.9604436648  W2        16483           0.0000000000
     47090     15697  TIP3      H1            -49.0129605720       57.0281575841        7.6048736648  W2        16483           0.0000000000
     47091     15697  TIP3      H2            -48.0076205720       56.9116675841        6.4789936648  W2        16483           0.0000000000
     47092     15698  TIP3      OH2           -53.0086105720       57.4740375841        3.6476936648  W2        16484           0.0000000000
     47093     15698  TIP3      H1            -53.0921305720       58.3623475841        3.9943336648  W2        16484           0.0000000000
     47094     15698  TIP3      H2            -52.1185805720       57.2087075841        3.8793736648  W2        16484           0.0000000000
     47095     15699  TIP3      OH2           -42.8097605720       58.2230975841       16.0419636648  W2        16485           0.0000000000
     47096     15699  TIP3      H1            -43.7261805720       58.4852675841       15.9543336648  W2        16485           0.0000000000
     47097     15699  TIP3      H2            -42.4742605720       58.2199975841       15.1454936648  W2        16485           0.0000000000
     47098     15700  TIP3      OH2           -55.6259605720       55.3472175841       10.4971836648  W2        16486           0.0000000000
     47099     15700  TIP3      H1            -55.8549805720       55.4064675841        9.5696836648  W2        16486           0.0000000000
     47100     15700  TIP3      H2            -56.0686205720       54.5557675841       10.8035936648  W2        16486           0.0000000000
     47101     15701  TIP3      OH2           -51.9686905720       57.6442675841       14.3112636648  W2        16487           0.0000000000
     47102     15701  TIP3      H1            -51.4329405720       58.0959375841       13.6591936648  W2        16487           0.0000000000
     47103     15701  TIP3      H2            -52.8207305720       57.5362475841       13.8886736648  W2        16487           0.0000000000
     47104     15702  TIP3      OH2           -51.1631405720       55.1008375841       14.7426236648  W2        16488           0.0000000000
     47105     15702  TIP3      H1            -51.2611805720       56.0471575841       14.6372436648  W2        16488           0.0000000000
     47106     15702  TIP3      H2            -51.9055205720       54.7282175841       14.2669736648  W2        16488           0.0000000000
     47107     15703  TIP3      OH2           -47.1834305720       58.5497275841       17.3818136648  W2        16489           0.0000000000
     47108     15703  TIP3      H1            -48.1308905720       58.5816975841       17.5141436648  W2        16489           0.0000000000
     47109     15703  TIP3      H2            -46.8707605720       57.9244375841       18.0356336648  W2        16489           0.0000000000
     47110     15704  TIP3      OH2           -50.9413305720       54.3945775841       17.4139036648  W2        16492           0.0000000000
     47111     15704  TIP3      H1            -50.2294905720       53.7547975841       17.3998136648  W2        16492           0.0000000000
     47112     15704  TIP3      H2            -51.0422905720       54.6614075841       16.5002136648  W2        16492           0.0000000000
     47113     15705  TIP3      OH2           -42.8312605720       58.0954375841        0.9463836648  W2        16494           0.0000000000
     47114     15705  TIP3      H1            -42.2206805720       57.7241175841        1.5832036648  W2        16494           0.0000000000
     47115     15705  TIP3      H2            -43.6681105720       57.6741275841        1.1423836648  W2        16494           0.0000000000
     47116     15706  TIP3      OH2           -42.5852105720       56.9132075841        5.9605736648  W2        16496           0.0000000000
     47117     15706  TIP3      H1            -42.4027105720       56.4643575841        6.7860736648  W2        16496           0.0000000000
     47118     15706  TIP3      H2            -43.1849205720       56.3286475841        5.4970336648  W2        16496           0.0000000000
     47119     15707  TIP3      OH2           -57.0552005720       57.7285775841       10.4924136648  W2        16497           0.0000000000
     47120     15707  TIP3      H1            -56.6100405720       56.9368275841       10.7943836648  W2        16497           0.0000000000
     47121     15707  TIP3      H2            -56.5889005720       58.4450975841       10.9229736648  W2        16497           0.0000000000
     47122     15708  TIP3      OH2           -40.7185905720       56.9810175841        2.4886036648  W2        16499           0.0000000000
     47123     15708  TIP3      H1            -40.3063305720       56.2595875841        2.0134036648  W2        16499           0.0000000000
     47124     15708  TIP3      H2            -40.0369405720       57.6504775841        2.5470336648  W2        16499           0.0000000000
     47125     15709  TIP3      OH2           -58.4375205720       56.9857875841        5.6156736648  W2        16500           0.0000000000
     47126     15709  TIP3      H1            -59.3626805720       57.1944475841        5.4862236648  W2        16500           0.0000000000
     47127     15709  TIP3      H2            -57.9835305720       57.4698675841        4.9259036648  W2        16500           0.0000000000
     47128     15710  TIP3      OH2           -58.4739805720       55.7236875841       13.9599236648  W2        16501           0.0000000000
     47129     15710  TIP3      H1            -59.1389305720       55.4777175841       14.6030136648  W2        16501           0.0000000000
     47130     15710  TIP3      H2            -58.9168505720       56.3457275841       13.3827236648  W2        16501           0.0000000000
     47131     15711  TIP3      OH2           -41.7542005720       55.1476575841       15.6459136648  W2        16502           0.0000000000
     47132     15711  TIP3      H1            -42.5668505720       55.4726875841       15.2583836648  W2        16502           0.0000000000
     47133     15711  TIP3      H2            -41.5213505720       54.3875075841       15.1128236648  W2        16502           0.0000000000
     47134     15712  TIP3      OH2           -48.3243505720       56.5967175841        9.9687336648  W2        16503           0.0000000000
     47135     15712  TIP3      H1            -48.9986705720       55.9672775841       10.2243136648  W2        16503           0.0000000000
     47136     15712  TIP3      H2            -47.7604305720       56.1126075841        9.3655236648  W2        16503           0.0000000000
     47137     15713  TIP3      OH2           -43.1816305720       54.7041175841       10.0814436648  W2        16504           0.0000000000
     47138     15713  TIP3      H1            -42.5778705720       55.2516575841        9.5795436648  W2        16504           0.0000000000
     47139     15713  TIP3      H2            -44.0514305720       55.0231575841        9.8408536648  W2        16504           0.0000000000
     47140     15714  TIP3      OH2           -41.4545905720       55.8429875841        8.4145336648  W2        16505           0.0000000000
     47141     15714  TIP3      H1            -40.8428405720       55.3285575841        7.8878936648  W2        16505           0.0000000000
     47142     15714  TIP3      H2            -41.0722505720       56.7201975841        8.4379736648  W2        16505           0.0000000000
     47143     15715  TIP3      OH2           -55.9976005720       55.2307475841        7.7907236648  W2        16506           0.0000000000
     47144     15715  TIP3      H1            -56.7746205720       54.9962375841        7.2833136648  W2        16506           0.0000000000
     47145     15715  TIP3      H2            -55.4672405720       54.4339575841        7.7995236648  W2        16506           0.0000000000
     47146     15716  TIP3      OH2           -57.1612605720       55.0285575841        3.5943336648  W2        16507           0.0000000000
     47147     15716  TIP3      H1            -56.7221905720       55.6396075841        3.0026836648  W2        16507           0.0000000000
     47148     15716  TIP3      H2            -57.7950205720       55.5669675841        4.0683336648  W2        16507           0.0000000000
     47149     15717  TIP3      OH2           -51.4183405720       55.1574575841        7.6040336648  W2        16508           0.0000000000
     47150     15717  TIP3      H1            -50.5440005720       55.5458875841        7.5744636648  W2        16508           0.0000000000
     47151     15717  TIP3      H2            -51.5542605720       54.9422375841        8.5267536648  W2        16508           0.0000000000
     47152     15718  TIP3      OH2           -45.8615005720       55.1874375841        9.2532036648  W2        16509           0.0000000000
     47153     15718  TIP3      H1            -45.7853405720       55.2825975841        8.3038036648  W2        16509           0.0000000000
     47154     15718  TIP3      H2            -46.1365805720       54.2797275841        9.3821136648  W2        16509           0.0000000000
     47155     15719  TIP3      OH2           -44.5082405720       55.2132175841        4.9457036648  W2        16510           0.0000000000
     47156     15719  TIP3      H1            -45.2111305720       55.8281375841        4.7358436648  W2        16510           0.0000000000
     47157     15719  TIP3      H2            -44.9531005720       54.3758875841        5.0767936648  W2        16510           0.0000000000
     47158     15720  TIP3      OH2           -55.3003505720       56.9447075841        2.0367436648  W2        16511           0.0000000000
     47159     15720  TIP3      H1            -54.8090105720       56.3149475841        1.5092936648  W2        16511           0.0000000000
     47160     15720  TIP3      H2            -54.6767205720       57.2406475841        2.6998636648  W2        16511           0.0000000000
     47161     15721  TIP3      OH2           -50.2743405720       57.2378575841        4.4937936648  W2        16512           0.0000000000
     47162     15721  TIP3      H1            -50.0962105720       56.5911775841        5.1766536648  W2        16512           0.0000000000
     47163     15721  TIP3      H2            -50.3277205720       58.0716275841        4.9609036648  W2        16512           0.0000000000
     47164     15722  TIP3      OH2           -56.0398005720       55.7449375841       17.3083436648  W2        16513           0.0000000000
     47165     15722  TIP3      H1            -56.4059805720       54.9791975841       17.7508136648  W2        16513           0.0000000000
     47166     15722  TIP3      H2            -55.1269505720       55.7739575841       17.5948536648  W2        16513           0.0000000000
     47167     15723  TIP3      OH2           -22.0777905720       57.6757175841       12.4350136648  W2        16516           0.0000000000
     47168     15723  TIP3      H1            -22.0285705720       58.2858375841       13.1709236648  W2        16516           0.0000000000
     47169     15723  TIP3      H2            -21.6522805720       58.1368075841       11.7121236648  W2        16516           0.0000000000
     47170     15724  TIP3      OH2           -34.4452405720       58.5700675841        9.1743536648  W2        16517           0.0000000000
     47171     15724  TIP3      H1            -34.4021305720       59.4299175841        8.7559836648  W2        16517           0.0000000000
     47172     15724  TIP3      H2            -34.9028305720       58.0175375841        8.5406736648  W2        16517           0.0000000000
     47173     15725  TIP3      OH2           -35.6350505720       57.4879075841       13.2484336648  W2        16518           0.0000000000
     47174     15725  TIP3      H1            -35.8538805720       58.0179675841       12.4820336648  W2        16518           0.0000000000
     47175     15725  TIP3      H2            -36.3029605720       57.7144575841       13.8955736648  W2        16518           0.0000000000
     47176     15726  TIP3      OH2           -24.9591305720       57.9915575841        9.5557736648  W2        16519           0.0000000000
     47177     15726  TIP3      H1            -25.1743305720       57.2258975841       10.0883736648  W2        16519           0.0000000000
     47178     15726  TIP3      H2            -24.3033905720       58.4640175841       10.0686236648  W2        16519           0.0000000000
     47179     15727  TIP3      OH2           -24.6117205720       56.7066875841       13.2351236648  W2        16520           0.0000000000
     47180     15727  TIP3      H1            -25.3478005720       57.3173975841       13.1972536648  W2        16520           0.0000000000
     47181     15727  TIP3      H2            -23.9283205720       57.1215875841       12.7087636648  W2        16520           0.0000000000
     47182     15728  TIP3      OH2           -31.6085805720       54.7934175841       10.7009236648  W2        16521           0.0000000000
     47183     15728  TIP3      H1            -31.7261605720       53.8450175841       10.6467536648  W2        16521           0.0000000000
     47184     15728  TIP3      H2            -32.4635705720       55.1260275841       10.9740336648  W2        16521           0.0000000000
     47185     15729  TIP3      OH2           -23.3665305720       54.7526375841        3.6511836648  W2        16522           0.0000000000
     47186     15729  TIP3      H1            -24.2664605720       54.8915375841        3.9462436648  W2        16522           0.0000000000
     47187     15729  TIP3      H2            -23.1146905720       55.5840975841        3.2493536648  W2        16522           0.0000000000
     47188     15730  TIP3      OH2           -34.3398205720       55.6968675841       11.4785536648  W2        16523           0.0000000000
     47189     15730  TIP3      H1            -35.2014505720       55.6096875841       11.0708436648  W2        16523           0.0000000000
     47190     15730  TIP3      H2            -34.3622505720       56.5528775841       11.9063136648  W2        16523           0.0000000000
     47191     15731  TIP3      OH2           -29.6770405720       55.4189075841       14.8532536648  W2        16524           0.0000000000
     47192     15731  TIP3      H1            -29.2567305720       55.0036175841       15.6063136648  W2        16524           0.0000000000
     47193     15731  TIP3      H2            -30.6100805720       55.2402375841       14.9704536648  W2        16524           0.0000000000
     47194     15732  TIP3      OH2           -30.0153105720       57.9112475841        2.1383336648  W2        16525           0.0000000000
     47195     15732  TIP3      H1            -30.2688305720       57.9304075841        3.0611436648  W2        16525           0.0000000000
     47196     15732  TIP3      H2            -30.2721005720       57.0397875841        1.8369536648  W2        16525           0.0000000000
     47197     15733  TIP3      OH2           -33.1330205720       58.3568975841        1.2393736648  W2        16526           0.0000000000
     47198     15733  TIP3      H1            -33.5639505720       57.9119075841        1.9691136648  W2        16526           0.0000000000
     47199     15733  TIP3      H2            -33.8511505720       58.7285275841        0.7271236648  W2        16526           0.0000000000
     47200     15734  TIP3      OH2           -39.8906805720       58.0988475841        8.2912436648  W2        16527           0.0000000000
     47201     15734  TIP3      H1            -39.2599105720       58.0700575841        9.0106336648  W2        16527           0.0000000000
     47202     15734  TIP3      H2            -39.4412505720       57.6737175841        7.5608336648  W2        16527           0.0000000000
     47203     15735  TIP3      OH2           -31.6703705720       58.3110775841        8.5719836648  W2        16528           0.0000000000
     47204     15735  TIP3      H1            -32.5812605720       58.3677575841        8.8605836648  W2        16528           0.0000000000
     47205     15735  TIP3      H2            -31.1650805720       58.2506275841        9.3827036648  W2        16528           0.0000000000
     47206     15736  TIP3      OH2           -27.2651805720       57.5457075841       11.8361636648  W2        16529           0.0000000000
     47207     15736  TIP3      H1            -27.9420205720       57.6770175841       12.5001336648  W2        16529           0.0000000000
     47208     15736  TIP3      H2            -27.7506905720       57.3906575841       11.0259336648  W2        16529           0.0000000000
     47209     15737  TIP3      OH2           -35.3484305720       57.2349875841        6.8774236648  W2        16530           0.0000000000
     47210     15737  TIP3      H1            -35.6654805720       56.3325175841        6.8419636648  W2        16530           0.0000000000
     47211     15737  TIP3      H2            -34.5670205720       57.2367275841        6.3245836648  W2        16530           0.0000000000
     47212     15738  TIP3      OH2           -27.2818705720       58.5137475841        2.7568836648  W2        16531           0.0000000000
     47213     15738  TIP3      H1            -28.2204505720       58.6253075841        2.6057636648  W2        16531           0.0000000000
     47214     15738  TIP3      H2            -26.9846605720       59.3704375841        3.0634536648  W2        16531           0.0000000000
     47215     15739  TIP3      OH2           -37.4128005720       58.2087175841       15.2004036648  W2        16532           0.0000000000
     47216     15739  TIP3      H1            -38.3055705720       58.5472575841       15.1328036648  W2        16532           0.0000000000
     47217     15739  TIP3      H2            -37.5115205720       57.3533275841       15.6184836648  W2        16532           0.0000000000
     47218     15740  TIP3      OH2           -28.6784605720       57.9497475841       14.0902636648  W2        16533           0.0000000000
     47219     15740  TIP3      H1            -27.9796705720       58.0236175841       14.7402336648  W2        16533           0.0000000000
     47220     15740  TIP3      H2            -29.0593205720       57.0852475841       14.2445536648  W2        16533           0.0000000000
     47221     15741  TIP3      OH2           -27.8939705720       57.6019175841        5.1874936648  W2        16534           0.0000000000
     47222     15741  TIP3      H1            -27.6741405720       58.0734575841        4.3840336648  W2        16534           0.0000000000
     47223     15741  TIP3      H2            -27.3355705720       57.9961775841        5.8575536648  W2        16534           0.0000000000
     47224     15742  TIP3      OH2           -29.8103105720       56.4110975841        6.9604436648  W2        16535           0.0000000000
     47225     15742  TIP3      H1            -30.1569605720       57.0281575841        7.6048736648  W2        16535           0.0000000000
     47226     15742  TIP3      H2            -29.1516205720       56.9116675841        6.4789936648  W2        16535           0.0000000000
     47227     15743  TIP3      OH2           -34.1526105720       57.4740375841        3.6476936648  W2        16536           0.0000000000
     47228     15743  TIP3      H1            -34.2361305720       58.3623475841        3.9943336648  W2        16536           0.0000000000
     47229     15743  TIP3      H2            -33.2625805720       57.2087075841        3.8793736648  W2        16536           0.0000000000
     47230     15744  TIP3      OH2           -23.9537605720       58.2230975841       16.0419636648  W2        16537           0.0000000000
     47231     15744  TIP3      H1            -24.8701805720       58.4852675841       15.9543336648  W2        16537           0.0000000000
     47232     15744  TIP3      H2            -23.6182605720       58.2199975841       15.1454936648  W2        16537           0.0000000000
     47233     15745  TIP3      OH2           -36.7699605720       55.3472175841       10.4971836648  W2        16538           0.0000000000
     47234     15745  TIP3      H1            -36.9989805720       55.4064675841        9.5696836648  W2        16538           0.0000000000
     47235     15745  TIP3      H2            -37.2126205720       54.5557675841       10.8035936648  W2        16538           0.0000000000
     47236     15746  TIP3      OH2           -33.1126905720       57.6442675841       14.3112636648  W2        16539           0.0000000000
     47237     15746  TIP3      H1            -32.5769405720       58.0959375841       13.6591936648  W2        16539           0.0000000000
     47238     15746  TIP3      H2            -33.9647305720       57.5362475841       13.8886736648  W2        16539           0.0000000000
     47239     15747  TIP3      OH2           -32.3071405720       55.1008375841       14.7426236648  W2        16540           0.0000000000
     47240     15747  TIP3      H1            -32.4051805720       56.0471575841       14.6372436648  W2        16540           0.0000000000
     47241     15747  TIP3      H2            -33.0495205720       54.7282175841       14.2669736648  W2        16540           0.0000000000
     47242     15748  TIP3      OH2           -28.3274305720       58.5497275841       17.3818136648  W2        16541           0.0000000000
     47243     15748  TIP3      H1            -29.2748905720       58.5816975841       17.5141436648  W2        16541           0.0000000000
     47244     15748  TIP3      H2            -28.0147605720       57.9244375841       18.0356336648  W2        16541           0.0000000000
     47245     15749  TIP3      OH2           -32.0853305720       54.3945775841       17.4139036648  W2        16544           0.0000000000
     47246     15749  TIP3      H1            -31.3734905720       53.7547975841       17.3998136648  W2        16544           0.0000000000
     47247     15749  TIP3      H2            -32.1862905720       54.6614075841       16.5002136648  W2        16544           0.0000000000
     47248     15750  TIP3      OH2           -23.9752605720       58.0954375841        0.9463836648  W2        16546           0.0000000000
     47249     15750  TIP3      H1            -23.3646805720       57.7241175841        1.5832036648  W2        16546           0.0000000000
     47250     15750  TIP3      H2            -24.8121105720       57.6741275841        1.1423836648  W2        16546           0.0000000000
     47251     15751  TIP3      OH2           -23.7292105720       56.9132075841        5.9605736648  W2        16548           0.0000000000
     47252     15751  TIP3      H1            -23.5467105720       56.4643575841        6.7860736648  W2        16548           0.0000000000
     47253     15751  TIP3      H2            -24.3289205720       56.3286475841        5.4970336648  W2        16548           0.0000000000
     47254     15752  TIP3      OH2           -38.1992005720       57.7285775841       10.4924136648  W2        16549           0.0000000000
     47255     15752  TIP3      H1            -37.7540405720       56.9368275841       10.7943836648  W2        16549           0.0000000000
     47256     15752  TIP3      H2            -37.7329005720       58.4450975841       10.9229736648  W2        16549           0.0000000000
     47257     15753  TIP3      OH2           -21.8625905720       56.9810175841        2.4886036648  W2        16551           0.0000000000
     47258     15753  TIP3      H1            -21.4503305720       56.2595875841        2.0134036648  W2        16551           0.0000000000
     47259     15753  TIP3      H2            -21.1809405720       57.6504775841        2.5470336648  W2        16551           0.0000000000
     47260     15754  TIP3      OH2           -39.5815205720       56.9857875841        5.6156736648  W2        16552           0.0000000000
     47261     15754  TIP3      H1            -40.5066805720       57.1944475841        5.4862236648  W2        16552           0.0000000000
     47262     15754  TIP3      H2            -39.1275305720       57.4698675841        4.9259036648  W2        16552           0.0000000000
     47263     15755  TIP3      OH2           -39.6179805720       55.7236875841       13.9599236648  W2        16553           0.0000000000
     47264     15755  TIP3      H1            -40.2829305720       55.4777175841       14.6030136648  W2        16553           0.0000000000
     47265     15755  TIP3      H2            -40.0608505720       56.3457275841       13.3827236648  W2        16553           0.0000000000
     47266     15756  TIP3      OH2           -22.8982005720       55.1476575841       15.6459136648  W2        16554           0.0000000000
     47267     15756  TIP3      H1            -23.7108505720       55.4726875841       15.2583836648  W2        16554           0.0000000000
     47268     15756  TIP3      H2            -22.6653505720       54.3875075841       15.1128236648  W2        16554           0.0000000000
     47269     15757  TIP3      OH2           -29.4683505720       56.5967175841        9.9687336648  W2        16555           0.0000000000
     47270     15757  TIP3      H1            -30.1426705720       55.9672775841       10.2243136648  W2        16555           0.0000000000
     47271     15757  TIP3      H2            -28.9044305720       56.1126075841        9.3655236648  W2        16555           0.0000000000
     47272     15758  TIP3      OH2           -24.3256305720       54.7041175841       10.0814436648  W2        16556           0.0000000000
     47273     15758  TIP3      H1            -23.7218705720       55.2516575841        9.5795436648  W2        16556           0.0000000000
     47274     15758  TIP3      H2            -25.1954305720       55.0231575841        9.8408536648  W2        16556           0.0000000000
     47275     15759  TIP3      OH2           -22.5985905720       55.8429875841        8.4145336648  W2        16557           0.0000000000
     47276     15759  TIP3      H1            -21.9868405720       55.3285575841        7.8878936648  W2        16557           0.0000000000
     47277     15759  TIP3      H2            -22.2162505720       56.7201975841        8.4379736648  W2        16557           0.0000000000
     47278     15760  TIP3      OH2           -37.1416005720       55.2307475841        7.7907236648  W2        16558           0.0000000000
     47279     15760  TIP3      H1            -37.9186205720       54.9962375841        7.2833136648  W2        16558           0.0000000000
     47280     15760  TIP3      H2            -36.6112405720       54.4339575841        7.7995236648  W2        16558           0.0000000000
     47281     15761  TIP3      OH2           -38.3052605720       55.0285575841        3.5943336648  W2        16559           0.0000000000
     47282     15761  TIP3      H1            -37.8661905720       55.6396075841        3.0026836648  W2        16559           0.0000000000
     47283     15761  TIP3      H2            -38.9390205720       55.5669675841        4.0683336648  W2        16559           0.0000000000
     47284     15762  TIP3      OH2           -32.5623405720       55.1574575841        7.6040336648  W2        16560           0.0000000000
     47285     15762  TIP3      H1            -31.6880005720       55.5458875841        7.5744636648  W2        16560           0.0000000000
     47286     15762  TIP3      H2            -32.6982605720       54.9422375841        8.5267536648  W2        16560           0.0000000000
     47287     15763  TIP3      OH2           -27.0055005720       55.1874375841        9.2532036648  W2        16561           0.0000000000
     47288     15763  TIP3      H1            -26.9293405720       55.2825975841        8.3038036648  W2        16561           0.0000000000
     47289     15763  TIP3      H2            -27.2805805720       54.2797275841        9.3821136648  W2        16561           0.0000000000
     47290     15764  TIP3      OH2           -25.6522405720       55.2132175841        4.9457036648  W2        16562           0.0000000000
     47291     15764  TIP3      H1            -26.3551305720       55.8281375841        4.7358436648  W2        16562           0.0000000000
     47292     15764  TIP3      H2            -26.0971005720       54.3758875841        5.0767936648  W2        16562           0.0000000000
     47293     15765  TIP3      OH2           -36.4443505720       56.9447075841        2.0367436648  W2        16563           0.0000000000
     47294     15765  TIP3      H1            -35.9530105720       56.3149475841        1.5092936648  W2        16563           0.0000000000
     47295     15765  TIP3      H2            -35.8207205720       57.2406475841        2.6998636648  W2        16563           0.0000000000
     47296     15766  TIP3      OH2           -31.4183405720       57.2378575841        4.4937936648  W2        16564           0.0000000000
     47297     15766  TIP3      H1            -31.2402105720       56.5911775841        5.1766536648  W2        16564           0.0000000000
     47298     15766  TIP3      H2            -31.4717205720       58.0716275841        4.9609036648  W2        16564           0.0000000000
     47299     15767  TIP3      OH2           -37.1838005720       55.7449375841       17.3083436648  W2        16565           0.0000000000
     47300     15767  TIP3      H1            -37.5499805720       54.9791975841       17.7508136648  W2        16565           0.0000000000
     47301     15767  TIP3      H2            -36.2709505720       55.7739575841       17.5948536648  W2        16565           0.0000000000
     47302     15768  TIP3      OH2            -3.2217905720       57.6757175841       12.4350136648  W2        16568           0.0000000000
     47303     15768  TIP3      H1             -3.1725705720       58.2858375841       13.1709236648  W2        16568           0.0000000000
     47304     15768  TIP3      H2             -2.7962805720       58.1368075841       11.7121236648  W2        16568           0.0000000000
     47305     15769  TIP3      OH2           -15.5892405720       58.5700675841        9.1743536648  W2        16569           0.0000000000
     47306     15769  TIP3      H1            -15.5461305720       59.4299175841        8.7559836648  W2        16569           0.0000000000
     47307     15769  TIP3      H2            -16.0468305720       58.0175375841        8.5406736648  W2        16569           0.0000000000
     47308     15770  TIP3      OH2           -16.7790505720       57.4879075841       13.2484336648  W2        16570           0.0000000000
     47309     15770  TIP3      H1            -16.9978805720       58.0179675841       12.4820336648  W2        16570           0.0000000000
     47310     15770  TIP3      H2            -17.4469605720       57.7144575841       13.8955736648  W2        16570           0.0000000000
     47311     15771  TIP3      OH2            -6.1031305720       57.9915575841        9.5557736648  W2        16571           0.0000000000
     47312     15771  TIP3      H1             -6.3183305720       57.2258975841       10.0883736648  W2        16571           0.0000000000
     47313     15771  TIP3      H2             -5.4473905720       58.4640175841       10.0686236648  W2        16571           0.0000000000
     47314     15772  TIP3      OH2            -5.7557205720       56.7066875841       13.2351236648  W2        16572           0.0000000000
     47315     15772  TIP3      H1             -6.4918005720       57.3173975841       13.1972536648  W2        16572           0.0000000000
     47316     15772  TIP3      H2             -5.0723205720       57.1215875841       12.7087636648  W2        16572           0.0000000000
     47317     15773  TIP3      OH2           -12.7525805720       54.7934175841       10.7009236648  W2        16573           0.0000000000
     47318     15773  TIP3      H1            -12.8701605720       53.8450175841       10.6467536648  W2        16573           0.0000000000
     47319     15773  TIP3      H2            -13.6075705720       55.1260275841       10.9740336648  W2        16573           0.0000000000
     47320     15774  TIP3      OH2            -4.5105305720       54.7526375841        3.6511836648  W2        16574           0.0000000000
     47321     15774  TIP3      H1             -5.4104605720       54.8915375841        3.9462436648  W2        16574           0.0000000000
     47322     15774  TIP3      H2             -4.2586905720       55.5840975841        3.2493536648  W2        16574           0.0000000000
     47323     15775  TIP3      OH2           -15.4838205720       55.6968675841       11.4785536648  W2        16575           0.0000000000
     47324     15775  TIP3      H1            -16.3454505720       55.6096875841       11.0708436648  W2        16575           0.0000000000
     47325     15775  TIP3      H2            -15.5062505720       56.5528775841       11.9063136648  W2        16575           0.0000000000
     47326     15776  TIP3      OH2           -10.8210405720       55.4189075841       14.8532536648  W2        16576           0.0000000000
     47327     15776  TIP3      H1            -10.4007305720       55.0036175841       15.6063136648  W2        16576           0.0000000000
     47328     15776  TIP3      H2            -11.7540805720       55.2402375841       14.9704536648  W2        16576           0.0000000000
     47329     15777  TIP3      OH2           -11.1593105720       57.9112475841        2.1383336648  W2        16577           0.0000000000
     47330     15777  TIP3      H1            -11.4128305720       57.9304075841        3.0611436648  W2        16577           0.0000000000
     47331     15777  TIP3      H2            -11.4161005720       57.0397875841        1.8369536648  W2        16577           0.0000000000
     47332     15778  TIP3      OH2           -14.2770205720       58.3568975841        1.2393736648  W2        16578           0.0000000000
     47333     15778  TIP3      H1            -14.7079505720       57.9119075841        1.9691136648  W2        16578           0.0000000000
     47334     15778  TIP3      H2            -14.9951505720       58.7285275841        0.7271236648  W2        16578           0.0000000000
     47335     15779  TIP3      OH2           -21.0346805720       58.0988475841        8.2912436648  W2        16579           0.0000000000
     47336     15779  TIP3      H1            -20.4039105720       58.0700575841        9.0106336648  W2        16579           0.0000000000
     47337     15779  TIP3      H2            -20.5852505720       57.6737175841        7.5608336648  W2        16579           0.0000000000
     47338     15780  TIP3      OH2           -12.8143705720       58.3110775841        8.5719836648  W2        16580           0.0000000000
     47339     15780  TIP3      H1            -13.7252605720       58.3677575841        8.8605836648  W2        16580           0.0000000000
     47340     15780  TIP3      H2            -12.3090805720       58.2506275841        9.3827036648  W2        16580           0.0000000000
     47341     15781  TIP3      OH2            -8.4091805720       57.5457075841       11.8361636648  W2        16581           0.0000000000
     47342     15781  TIP3      H1             -9.0860205720       57.6770175841       12.5001336648  W2        16581           0.0000000000
     47343     15781  TIP3      H2             -8.8946905720       57.3906575841       11.0259336648  W2        16581           0.0000000000
     47344     15782  TIP3      OH2           -16.4924305720       57.2349875841        6.8774236648  W2        16582           0.0000000000
     47345     15782  TIP3      H1            -16.8094805720       56.3325175841        6.8419636648  W2        16582           0.0000000000
     47346     15782  TIP3      H2            -15.7110205720       57.2367275841        6.3245836648  W2        16582           0.0000000000
     47347     15783  TIP3      OH2            -8.4258705720       58.5137475841        2.7568836648  W2        16583           0.0000000000
     47348     15783  TIP3      H1             -9.3644505720       58.6253075841        2.6057636648  W2        16583           0.0000000000
     47349     15783  TIP3      H2             -8.1286605720       59.3704375841        3.0634536648  W2        16583           0.0000000000
     47350     15784  TIP3      OH2           -18.5568005720       58.2087175841       15.2004036648  W2        16584           0.0000000000
     47351     15784  TIP3      H1            -19.4495705720       58.5472575841       15.1328036648  W2        16584           0.0000000000
     47352     15784  TIP3      H2            -18.6555205720       57.3533275841       15.6184836648  W2        16584           0.0000000000
     47353     15785  TIP3      OH2            -9.8224605720       57.9497475841       14.0902636648  W2        16585           0.0000000000
     47354     15785  TIP3      H1             -9.1236705720       58.0236175841       14.7402336648  W2        16585           0.0000000000
     47355     15785  TIP3      H2            -10.2033205720       57.0852475841       14.2445536648  W2        16585           0.0000000000
     47356     15786  TIP3      OH2            -9.0379705720       57.6019175841        5.1874936648  W2        16586           0.0000000000
     47357     15786  TIP3      H1             -8.8181405720       58.0734575841        4.3840336648  W2        16586           0.0000000000
     47358     15786  TIP3      H2             -8.4795705720       57.9961775841        5.8575536648  W2        16586           0.0000000000
     47359     15787  TIP3      OH2           -10.9543105720       56.4110975841        6.9604436648  W2        16587           0.0000000000
     47360     15787  TIP3      H1            -11.3009605720       57.0281575841        7.6048736648  W2        16587           0.0000000000
     47361     15787  TIP3      H2            -10.2956205720       56.9116675841        6.4789936648  W2        16587           0.0000000000
     47362     15788  TIP3      OH2           -15.2966105720       57.4740375841        3.6476936648  W2        16588           0.0000000000
     47363     15788  TIP3      H1            -15.3801305720       58.3623475841        3.9943336648  W2        16588           0.0000000000
     47364     15788  TIP3      H2            -14.4065805720       57.2087075841        3.8793736648  W2        16588           0.0000000000
     47365     15789  TIP3      OH2            -5.0977605720       58.2230975841       16.0419636648  W2        16589           0.0000000000
     47366     15789  TIP3      H1             -6.0141805720       58.4852675841       15.9543336648  W2        16589           0.0000000000
     47367     15789  TIP3      H2             -4.7622605720       58.2199975841       15.1454936648  W2        16589           0.0000000000
     47368     15790  TIP3      OH2           -17.9139605720       55.3472175841       10.4971836648  W2        16590           0.0000000000
     47369     15790  TIP3      H1            -18.1429805720       55.4064675841        9.5696836648  W2        16590           0.0000000000
     47370     15790  TIP3      H2            -18.3566205720       54.5557675841       10.8035936648  W2        16590           0.0000000000
     47371     15791  TIP3      OH2           -14.2566905720       57.6442675841       14.3112636648  W2        16591           0.0000000000
     47372     15791  TIP3      H1            -13.7209405720       58.0959375841       13.6591936648  W2        16591           0.0000000000
     47373     15791  TIP3      H2            -15.1087305720       57.5362475841       13.8886736648  W2        16591           0.0000000000
     47374     15792  TIP3      OH2           -13.4511405720       55.1008375841       14.7426236648  W2        16592           0.0000000000
     47375     15792  TIP3      H1            -13.5491805720       56.0471575841       14.6372436648  W2        16592           0.0000000000
     47376     15792  TIP3      H2            -14.1935205720       54.7282175841       14.2669736648  W2        16592           0.0000000000
     47377     15793  TIP3      OH2            -9.4714305720       58.5497275841       17.3818136648  W2        16593           0.0000000000
     47378     15793  TIP3      H1            -10.4188905720       58.5816975841       17.5141436648  W2        16593           0.0000000000
     47379     15793  TIP3      H2             -9.1587605720       57.9244375841       18.0356336648  W2        16593           0.0000000000
     47380     15794  TIP3      OH2           -13.2293305720       54.3945775841       17.4139036648  W2        16596           0.0000000000
     47381     15794  TIP3      H1            -12.5174905720       53.7547975841       17.3998136648  W2        16596           0.0000000000
     47382     15794  TIP3      H2            -13.3302905720       54.6614075841       16.5002136648  W2        16596           0.0000000000
     47383     15795  TIP3      OH2            -5.1192605720       58.0954375841        0.9463836648  W2        16598           0.0000000000
     47384     15795  TIP3      H1             -4.5086805720       57.7241175841        1.5832036648  W2        16598           0.0000000000
     47385     15795  TIP3      H2             -5.9561105720       57.6741275841        1.1423836648  W2        16598           0.0000000000
     47386     15796  TIP3      OH2            -4.8732105720       56.9132075841        5.9605736648  W2        16600           0.0000000000
     47387     15796  TIP3      H1             -4.6907105720       56.4643575841        6.7860736648  W2        16600           0.0000000000
     47388     15796  TIP3      H2             -5.4729205720       56.3286475841        5.4970336648  W2        16600           0.0000000000
     47389     15797  TIP3      OH2           -19.3432005720       57.7285775841       10.4924136648  W2        16601           0.0000000000
     47390     15797  TIP3      H1            -18.8980405720       56.9368275841       10.7943836648  W2        16601           0.0000000000
     47391     15797  TIP3      H2            -18.8769005720       58.4450975841       10.9229736648  W2        16601           0.0000000000
     47392     15798  TIP3      OH2            -3.0065905720       56.9810175841        2.4886036648  W2        16603           0.0000000000
     47393     15798  TIP3      H1             -2.5943305720       56.2595875841        2.0134036648  W2        16603           0.0000000000
     47394     15798  TIP3      H2             -2.3249405720       57.6504775841        2.5470336648  W2        16603           0.0000000000
     47395     15799  TIP3      OH2           -20.7255205720       56.9857875841        5.6156736648  W2        16604           0.0000000000
     47396     15799  TIP3      H1            -21.6506805720       57.1944475841        5.4862236648  W2        16604           0.0000000000
     47397     15799  TIP3      H2            -20.2715305720       57.4698675841        4.9259036648  W2        16604           0.0000000000
     47398     15800  TIP3      OH2           -20.7619805720       55.7236875841       13.9599236648  W2        16605           0.0000000000
     47399     15800  TIP3      H1            -21.4269305720       55.4777175841       14.6030136648  W2        16605           0.0000000000
     47400     15800  TIP3      H2            -21.2048505720       56.3457275841       13.3827236648  W2        16605           0.0000000000
     47401     15801  TIP3      OH2            -4.0422005720       55.1476575841       15.6459136648  W2        16606           0.0000000000
     47402     15801  TIP3      H1             -4.8548505720       55.4726875841       15.2583836648  W2        16606           0.0000000000
     47403     15801  TIP3      H2             -3.8093505720       54.3875075841       15.1128236648  W2        16606           0.0000000000
     47404     15802  TIP3      OH2           -10.6123505720       56.5967175841        9.9687336648  W2        16607           0.0000000000
     47405     15802  TIP3      H1            -11.2866705720       55.9672775841       10.2243136648  W2        16607           0.0000000000
     47406     15802  TIP3      H2            -10.0484305720       56.1126075841        9.3655236648  W2        16607           0.0000000000
     47407     15803  TIP3      OH2            -5.4696305720       54.7041175841       10.0814436648  W2        16608           0.0000000000
     47408     15803  TIP3      H1             -4.8658705720       55.2516575841        9.5795436648  W2        16608           0.0000000000
     47409     15803  TIP3      H2             -6.3394305720       55.0231575841        9.8408536648  W2        16608           0.0000000000
     47410     15804  TIP3      OH2            -3.7425905720       55.8429875841        8.4145336648  W2        16609           0.0000000000
     47411     15804  TIP3      H1             -3.1308405720       55.3285575841        7.8878936648  W2        16609           0.0000000000
     47412     15804  TIP3      H2             -3.3602505720       56.7201975841        8.4379736648  W2        16609           0.0000000000
     47413     15805  TIP3      OH2           -18.2856005720       55.2307475841        7.7907236648  W2        16610           0.0000000000
     47414     15805  TIP3      H1            -19.0626205720       54.9962375841        7.2833136648  W2        16610           0.0000000000
     47415     15805  TIP3      H2            -17.7552405720       54.4339575841        7.7995236648  W2        16610           0.0000000000
     47416     15806  TIP3      OH2           -19.4492605720       55.0285575841        3.5943336648  W2        16611           0.0000000000
     47417     15806  TIP3      H1            -19.0101905720       55.6396075841        3.0026836648  W2        16611           0.0000000000
     47418     15806  TIP3      H2            -20.0830205720       55.5669675841        4.0683336648  W2        16611           0.0000000000
     47419     15807  TIP3      OH2           -13.7063405720       55.1574575841        7.6040336648  W2        16612           0.0000000000
     47420     15807  TIP3      H1            -12.8320005720       55.5458875841        7.5744636648  W2        16612           0.0000000000
     47421     15807  TIP3      H2            -13.8422605720       54.9422375841        8.5267536648  W2        16612           0.0000000000
     47422     15808  TIP3      OH2            -8.1495005720       55.1874375841        9.2532036648  W2        16613           0.0000000000
     47423     15808  TIP3      H1             -8.0733405720       55.2825975841        8.3038036648  W2        16613           0.0000000000
     47424     15808  TIP3      H2             -8.4245805720       54.2797275841        9.3821136648  W2        16613           0.0000000000
     47425     15809  TIP3      OH2            -6.7962405720       55.2132175841        4.9457036648  W2        16614           0.0000000000
     47426     15809  TIP3      H1             -7.4991305720       55.8281375841        4.7358436648  W2        16614           0.0000000000
     47427     15809  TIP3      H2             -7.2411005720       54.3758875841        5.0767936648  W2        16614           0.0000000000
     47428     15810  TIP3      OH2           -17.5883505720       56.9447075841        2.0367436648  W2        16615           0.0000000000
     47429     15810  TIP3      H1            -17.0970105720       56.3149475841        1.5092936648  W2        16615           0.0000000000
     47430     15810  TIP3      H2            -16.9647205720       57.2406475841        2.6998636648  W2        16615           0.0000000000
     47431     15811  TIP3      OH2           -12.5623405720       57.2378575841        4.4937936648  W2        16616           0.0000000000
     47432     15811  TIP3      H1            -12.3842105720       56.5911775841        5.1766536648  W2        16616           0.0000000000
     47433     15811  TIP3      H2            -12.6157205720       58.0716275841        4.9609036648  W2        16616           0.0000000000
     47434     15812  TIP3      OH2           -18.3278005720       55.7449375841       17.3083436648  W2        16617           0.0000000000
     47435     15812  TIP3      H1            -18.6939805720       54.9791975841       17.7508136648  W2        16617           0.0000000000
     47436     15812  TIP3      H2            -17.4149505720       55.7739575841       17.5948536648  W2        16617           0.0000000000
     47437     15813  TIP3      OH2            15.6342094280       57.6757175841       12.4350136648  W2        16620           0.0000000000
     47438     15813  TIP3      H1             15.6834294280       58.2858375841       13.1709236648  W2        16620           0.0000000000
     47439     15813  TIP3      H2             16.0597194280       58.1368075841       11.7121236648  W2        16620           0.0000000000
     47440     15814  TIP3      OH2             3.2667594280       58.5700675841        9.1743536648  W2        16621           0.0000000000
     47441     15814  TIP3      H1              3.3098694280       59.4299175841        8.7559836648  W2        16621           0.0000000000
     47442     15814  TIP3      H2              2.8091694280       58.0175375841        8.5406736648  W2        16621           0.0000000000
     47443     15815  TIP3      OH2             2.0769494280       57.4879075841       13.2484336648  W2        16622           0.0000000000
     47444     15815  TIP3      H1              1.8581194280       58.0179675841       12.4820336648  W2        16622           0.0000000000
     47445     15815  TIP3      H2              1.4090394280       57.7144575841       13.8955736648  W2        16622           0.0000000000
     47446     15816  TIP3      OH2            12.7528694280       57.9915575841        9.5557736648  W2        16623           0.0000000000
     47447     15816  TIP3      H1             12.5376694280       57.2258975841       10.0883736648  W2        16623           0.0000000000
     47448     15816  TIP3      H2             13.4086094280       58.4640175841       10.0686236648  W2        16623           0.0000000000
     47449     15817  TIP3      OH2            13.1002794280       56.7066875841       13.2351236648  W2        16624           0.0000000000
     47450     15817  TIP3      H1             12.3641994280       57.3173975841       13.1972536648  W2        16624           0.0000000000
     47451     15817  TIP3      H2             13.7836794280       57.1215875841       12.7087636648  W2        16624           0.0000000000
     47452     15818  TIP3      OH2             6.1034194280       54.7934175841       10.7009236648  W2        16625           0.0000000000
     47453     15818  TIP3      H1              5.9858394280       53.8450175841       10.6467536648  W2        16625           0.0000000000
     47454     15818  TIP3      H2              5.2484294280       55.1260275841       10.9740336648  W2        16625           0.0000000000
     47455     15819  TIP3      OH2            14.3454694280       54.7526375841        3.6511836648  W2        16626           0.0000000000
     47456     15819  TIP3      H1             13.4455394280       54.8915375841        3.9462436648  W2        16626           0.0000000000
     47457     15819  TIP3      H2             14.5973094280       55.5840975841        3.2493536648  W2        16626           0.0000000000
     47458     15820  TIP3      OH2             3.3721794280       55.6968675841       11.4785536648  W2        16627           0.0000000000
     47459     15820  TIP3      H1              2.5105494280       55.6096875841       11.0708436648  W2        16627           0.0000000000
     47460     15820  TIP3      H2              3.3497494280       56.5528775841       11.9063136648  W2        16627           0.0000000000
     47461     15821  TIP3      OH2             8.0349594280       55.4189075841       14.8532536648  W2        16628           0.0000000000
     47462     15821  TIP3      H1              8.4552694280       55.0036175841       15.6063136648  W2        16628           0.0000000000
     47463     15821  TIP3      H2              7.1019194280       55.2402375841       14.9704536648  W2        16628           0.0000000000
     47464     15822  TIP3      OH2             7.6966894280       57.9112475841        2.1383336648  W2        16629           0.0000000000
     47465     15822  TIP3      H1              7.4431694280       57.9304075841        3.0611436648  W2        16629           0.0000000000
     47466     15822  TIP3      H2              7.4398994280       57.0397875841        1.8369536648  W2        16629           0.0000000000
     47467     15823  TIP3      OH2             4.5789794280       58.3568975841        1.2393736648  W2        16630           0.0000000000
     47468     15823  TIP3      H1              4.1480494280       57.9119075841        1.9691136648  W2        16630           0.0000000000
     47469     15823  TIP3      H2              3.8608494280       58.7285275841        0.7271236648  W2        16630           0.0000000000
     47470     15824  TIP3      OH2            -2.1786805720       58.0988475841        8.2912436648  W2        16631           0.0000000000
     47471     15824  TIP3      H1             -1.5479105720       58.0700575841        9.0106336648  W2        16631           0.0000000000
     47472     15824  TIP3      H2             -1.7292505720       57.6737175841        7.5608336648  W2        16631           0.0000000000
     47473     15825  TIP3      OH2             6.0416294280       58.3110775841        8.5719836648  W2        16632           0.0000000000
     47474     15825  TIP3      H1              5.1307394280       58.3677575841        8.8605836648  W2        16632           0.0000000000
     47475     15825  TIP3      H2              6.5469194280       58.2506275841        9.3827036648  W2        16632           0.0000000000
     47476     15826  TIP3      OH2            10.4468194280       57.5457075841       11.8361636648  W2        16633           0.0000000000
     47477     15826  TIP3      H1              9.7699794280       57.6770175841       12.5001336648  W2        16633           0.0000000000
     47478     15826  TIP3      H2              9.9613094280       57.3906575841       11.0259336648  W2        16633           0.0000000000
     47479     15827  TIP3      OH2             2.3635694280       57.2349875841        6.8774236648  W2        16634           0.0000000000
     47480     15827  TIP3      H1              2.0465194280       56.3325175841        6.8419636648  W2        16634           0.0000000000
     47481     15827  TIP3      H2              3.1449794280       57.2367275841        6.3245836648  W2        16634           0.0000000000
     47482     15828  TIP3      OH2            10.4301294280       58.5137475841        2.7568836648  W2        16635           0.0000000000
     47483     15828  TIP3      H1              9.4915494280       58.6253075841        2.6057636648  W2        16635           0.0000000000
     47484     15828  TIP3      H2             10.7273394280       59.3704375841        3.0634536648  W2        16635           0.0000000000
     47485     15829  TIP3      OH2             0.2991994280       58.2087175841       15.2004036648  W2        16636           0.0000000000
     47486     15829  TIP3      H1             -0.5935705720       58.5472575841       15.1328036648  W2        16636           0.0000000000
     47487     15829  TIP3      H2              0.2004794280       57.3533275841       15.6184836648  W2        16636           0.0000000000
     47488     15830  TIP3      OH2             9.0335394280       57.9497475841       14.0902636648  W2        16637           0.0000000000
     47489     15830  TIP3      H1              9.7323294280       58.0236175841       14.7402336648  W2        16637           0.0000000000
     47490     15830  TIP3      H2              8.6526794280       57.0852475841       14.2445536648  W2        16637           0.0000000000
     47491     15831  TIP3      OH2             9.8180294280       57.6019175841        5.1874936648  W2        16638           0.0000000000
     47492     15831  TIP3      H1             10.0378594280       58.0734575841        4.3840336648  W2        16638           0.0000000000
     47493     15831  TIP3      H2             10.3764294280       57.9961775841        5.8575536648  W2        16638           0.0000000000
     47494     15832  TIP3      OH2             7.9016894280       56.4110975841        6.9604436648  W2        16639           0.0000000000
     47495     15832  TIP3      H1              7.5550394280       57.0281575841        7.6048736648  W2        16639           0.0000000000
     47496     15832  TIP3      H2              8.5603794280       56.9116675841        6.4789936648  W2        16639           0.0000000000
     47497     15833  TIP3      OH2             3.5593894280       57.4740375841        3.6476936648  W2        16640           0.0000000000
     47498     15833  TIP3      H1              3.4758694280       58.3623475841        3.9943336648  W2        16640           0.0000000000
     47499     15833  TIP3      H2              4.4494194280       57.2087075841        3.8793736648  W2        16640           0.0000000000
     47500     15834  TIP3      OH2            13.7582394280       58.2230975841       16.0419636648  W2        16641           0.0000000000
     47501     15834  TIP3      H1             12.8418194280       58.4852675841       15.9543336648  W2        16641           0.0000000000
     47502     15834  TIP3      H2             14.0937394280       58.2199975841       15.1454936648  W2        16641           0.0000000000
     47503     15835  TIP3      OH2             0.9420394280       55.3472175841       10.4971836648  W2        16642           0.0000000000
     47504     15835  TIP3      H1              0.7130194280       55.4064675841        9.5696836648  W2        16642           0.0000000000
     47505     15835  TIP3      H2              0.4993794280       54.5557675841       10.8035936648  W2        16642           0.0000000000
     47506     15836  TIP3      OH2             4.5993094280       57.6442675841       14.3112636648  W2        16643           0.0000000000
     47507     15836  TIP3      H1              5.1350594280       58.0959375841       13.6591936648  W2        16643           0.0000000000
     47508     15836  TIP3      H2              3.7472694280       57.5362475841       13.8886736648  W2        16643           0.0000000000
     47509     15837  TIP3      OH2             5.4048594280       55.1008375841       14.7426236648  W2        16644           0.0000000000
     47510     15837  TIP3      H1              5.3068194280       56.0471575841       14.6372436648  W2        16644           0.0000000000
     47511     15837  TIP3      H2              4.6624794280       54.7282175841       14.2669736648  W2        16644           0.0000000000
     47512     15838  TIP3      OH2             9.3845694280       58.5497275841       17.3818136648  W2        16645           0.0000000000
     47513     15838  TIP3      H1              8.4371094280       58.5816975841       17.5141436648  W2        16645           0.0000000000
     47514     15838  TIP3      H2              9.6972394280       57.9244375841       18.0356336648  W2        16645           0.0000000000
     47515     15839  TIP3      OH2             5.6266694280       54.3945775841       17.4139036648  W2        16648           0.0000000000
     47516     15839  TIP3      H1              6.3385094280       53.7547975841       17.3998136648  W2        16648           0.0000000000
     47517     15839  TIP3      H2              5.5257094280       54.6614075841       16.5002136648  W2        16648           0.0000000000
     47518     15840  TIP3      OH2            13.7367394280       58.0954375841        0.9463836648  W2        16650           0.0000000000
     47519     15840  TIP3      H1             14.3473194280       57.7241175841        1.5832036648  W2        16650           0.0000000000
     47520     15840  TIP3      H2             12.8998894280       57.6741275841        1.1423836648  W2        16650           0.0000000000
     47521     15841  TIP3      OH2            13.9827894280       56.9132075841        5.9605736648  W2        16652           0.0000000000
     47522     15841  TIP3      H1             14.1652894280       56.4643575841        6.7860736648  W2        16652           0.0000000000
     47523     15841  TIP3      H2             13.3830794280       56.3286475841        5.4970336648  W2        16652           0.0000000000
     47524     15842  TIP3      OH2            -0.4872005720       57.7285775841       10.4924136648  W2        16653           0.0000000000
     47525     15842  TIP3      H1             -0.0420405720       56.9368275841       10.7943836648  W2        16653           0.0000000000
     47526     15842  TIP3      H2             -0.0209005720       58.4450975841       10.9229736648  W2        16653           0.0000000000
     47527     15843  TIP3      OH2            15.8494094280       56.9810175841        2.4886036648  W2        16655           0.0000000000
     47528     15843  TIP3      H1             16.2616694280       56.2595875841        2.0134036648  W2        16655           0.0000000000
     47529     15843  TIP3      H2             16.5310594280       57.6504775841        2.5470336648  W2        16655           0.0000000000
     47530     15844  TIP3      OH2            -1.8695205720       56.9857875841        5.6156736648  W2        16656           0.0000000000
     47531     15844  TIP3      H1             -2.7946805720       57.1944475841        5.4862236648  W2        16656           0.0000000000
     47532     15844  TIP3      H2             -1.4155305720       57.4698675841        4.9259036648  W2        16656           0.0000000000
     47533     15845  TIP3      OH2            -1.9059805720       55.7236875841       13.9599236648  W2        16657           0.0000000000
     47534     15845  TIP3      H1             -2.5709305720       55.4777175841       14.6030136648  W2        16657           0.0000000000
     47535     15845  TIP3      H2             -2.3488505720       56.3457275841       13.3827236648  W2        16657           0.0000000000
     47536     15846  TIP3      OH2            14.8137994280       55.1476575841       15.6459136648  W2        16658           0.0000000000
     47537     15846  TIP3      H1             14.0011494280       55.4726875841       15.2583836648  W2        16658           0.0000000000
     47538     15846  TIP3      H2             15.0466494280       54.3875075841       15.1128236648  W2        16658           0.0000000000
     47539     15847  TIP3      OH2             8.2436494280       56.5967175841        9.9687336648  W2        16659           0.0000000000
     47540     15847  TIP3      H1              7.5693294280       55.9672775841       10.2243136648  W2        16659           0.0000000000
     47541     15847  TIP3      H2              8.8075694280       56.1126075841        9.3655236648  W2        16659           0.0000000000
     47542     15848  TIP3      OH2            13.3863694280       54.7041175841       10.0814436648  W2        16660           0.0000000000
     47543     15848  TIP3      H1             13.9901294280       55.2516575841        9.5795436648  W2        16660           0.0000000000
     47544     15848  TIP3      H2             12.5165694280       55.0231575841        9.8408536648  W2        16660           0.0000000000
     47545     15849  TIP3      OH2            15.1134094280       55.8429875841        8.4145336648  W2        16661           0.0000000000
     47546     15849  TIP3      H1             15.7251594280       55.3285575841        7.8878936648  W2        16661           0.0000000000
     47547     15849  TIP3      H2             15.4957494280       56.7201975841        8.4379736648  W2        16661           0.0000000000
     47548     15850  TIP3      OH2             0.5703994280       55.2307475841        7.7907236648  W2        16662           0.0000000000
     47549     15850  TIP3      H1             -0.2066205720       54.9962375841        7.2833136648  W2        16662           0.0000000000
     47550     15850  TIP3      H2              1.1007594280       54.4339575841        7.7995236648  W2        16662           0.0000000000
     47551     15851  TIP3      OH2            -0.5932605720       55.0285575841        3.5943336648  W2        16663           0.0000000000
     47552     15851  TIP3      H1             -0.1541905720       55.6396075841        3.0026836648  W2        16663           0.0000000000
     47553     15851  TIP3      H2             -1.2270205720       55.5669675841        4.0683336648  W2        16663           0.0000000000
     47554     15852  TIP3      OH2             5.1496594280       55.1574575841        7.6040336648  W2        16664           0.0000000000
     47555     15852  TIP3      H1              6.0239994280       55.5458875841        7.5744636648  W2        16664           0.0000000000
     47556     15852  TIP3      H2              5.0137394280       54.9422375841        8.5267536648  W2        16664           0.0000000000
     47557     15853  TIP3      OH2            10.7064994280       55.1874375841        9.2532036648  W2        16665           0.0000000000
     47558     15853  TIP3      H1             10.7826594280       55.2825975841        8.3038036648  W2        16665           0.0000000000
     47559     15853  TIP3      H2             10.4314194280       54.2797275841        9.3821136648  W2        16665           0.0000000000
     47560     15854  TIP3      OH2            12.0597594280       55.2132175841        4.9457036648  W2        16666           0.0000000000
     47561     15854  TIP3      H1             11.3568694280       55.8281375841        4.7358436648  W2        16666           0.0000000000
     47562     15854  TIP3      H2             11.6148994280       54.3758875841        5.0767936648  W2        16666           0.0000000000
     47563     15855  TIP3      OH2             1.2676494280       56.9447075841        2.0367436648  W2        16667           0.0000000000
     47564     15855  TIP3      H1              1.7589894280       56.3149475841        1.5092936648  W2        16667           0.0000000000
     47565     15855  TIP3      H2              1.8912794280       57.2406475841        2.6998636648  W2        16667           0.0000000000
     47566     15856  TIP3      OH2             6.2936594280       57.2378575841        4.4937936648  W2        16668           0.0000000000
     47567     15856  TIP3      H1              6.4717894280       56.5911775841        5.1766536648  W2        16668           0.0000000000
     47568     15856  TIP3      H2              6.2402794280       58.0716275841        4.9609036648  W2        16668           0.0000000000
     47569     15857  TIP3      OH2             0.5281994280       55.7449375841       17.3083436648  W2        16669           0.0000000000
     47570     15857  TIP3      H1              0.1620194280       54.9791975841       17.7508136648  W2        16669           0.0000000000
     47571     15857  TIP3      H2              1.4410494280       55.7739575841       17.5948536648  W2        16669           0.0000000000
     47572     15858  TIP3      OH2            34.4902094280       57.6757175841       12.4350136648  W2        16672           0.0000000000
     47573     15858  TIP3      H1             34.5394294280       58.2858375841       13.1709236648  W2        16672           0.0000000000
     47574     15858  TIP3      H2             34.9157194280       58.1368075841       11.7121236648  W2        16672           0.0000000000
     47575     15859  TIP3      OH2            22.1227594280       58.5700675841        9.1743536648  W2        16673           0.0000000000
     47576     15859  TIP3      H1             22.1658694280       59.4299175841        8.7559836648  W2        16673           0.0000000000
     47577     15859  TIP3      H2             21.6651694280       58.0175375841        8.5406736648  W2        16673           0.0000000000
     47578     15860  TIP3      OH2            20.9329494280       57.4879075841       13.2484336648  W2        16674           0.0000000000
     47579     15860  TIP3      H1             20.7141194280       58.0179675841       12.4820336648  W2        16674           0.0000000000
     47580     15860  TIP3      H2             20.2650394280       57.7144575841       13.8955736648  W2        16674           0.0000000000
     47581     15861  TIP3      OH2            31.6088694280       57.9915575841        9.5557736648  W2        16675           0.0000000000
     47582     15861  TIP3      H1             31.3936694280       57.2258975841       10.0883736648  W2        16675           0.0000000000
     47583     15861  TIP3      H2             32.2646094280       58.4640175841       10.0686236648  W2        16675           0.0000000000
     47584     15862  TIP3      OH2            31.9562794280       56.7066875841       13.2351236648  W2        16676           0.0000000000
     47585     15862  TIP3      H1             31.2201994280       57.3173975841       13.1972536648  W2        16676           0.0000000000
     47586     15862  TIP3      H2             32.6396794280       57.1215875841       12.7087636648  W2        16676           0.0000000000
     47587     15863  TIP3      OH2            24.9594194280       54.7934175841       10.7009236648  W2        16677           0.0000000000
     47588     15863  TIP3      H1             24.8418394280       53.8450175841       10.6467536648  W2        16677           0.0000000000
     47589     15863  TIP3      H2             24.1044294280       55.1260275841       10.9740336648  W2        16677           0.0000000000
     47590     15864  TIP3      OH2            33.2014694280       54.7526375841        3.6511836648  W2        16678           0.0000000000
     47591     15864  TIP3      H1             32.3015394280       54.8915375841        3.9462436648  W2        16678           0.0000000000
     47592     15864  TIP3      H2             33.4533094280       55.5840975841        3.2493536648  W2        16678           0.0000000000
     47593     15865  TIP3      OH2            22.2281794280       55.6968675841       11.4785536648  W2        16679           0.0000000000
     47594     15865  TIP3      H1             21.3665494280       55.6096875841       11.0708436648  W2        16679           0.0000000000
     47595     15865  TIP3      H2             22.2057494280       56.5528775841       11.9063136648  W2        16679           0.0000000000
     47596     15866  TIP3      OH2            26.8909594280       55.4189075841       14.8532536648  W2        16680           0.0000000000
     47597     15866  TIP3      H1             27.3112694280       55.0036175841       15.6063136648  W2        16680           0.0000000000
     47598     15866  TIP3      H2             25.9579194280       55.2402375841       14.9704536648  W2        16680           0.0000000000
     47599     15867  TIP3      OH2            26.5526894280       57.9112475841        2.1383336648  W2        16681           0.0000000000
     47600     15867  TIP3      H1             26.2991694280       57.9304075841        3.0611436648  W2        16681           0.0000000000
     47601     15867  TIP3      H2             26.2958994280       57.0397875841        1.8369536648  W2        16681           0.0000000000
     47602     15868  TIP3      OH2            23.4349794280       58.3568975841        1.2393736648  W2        16682           0.0000000000
     47603     15868  TIP3      H1             23.0040494280       57.9119075841        1.9691136648  W2        16682           0.0000000000
     47604     15868  TIP3      H2             22.7168494280       58.7285275841        0.7271236648  W2        16682           0.0000000000
     47605     15869  TIP3      OH2            16.6773194280       58.0988475841        8.2912436648  W2        16683           0.0000000000
     47606     15869  TIP3      H1             17.3080894280       58.0700575841        9.0106336648  W2        16683           0.0000000000
     47607     15869  TIP3      H2             17.1267494280       57.6737175841        7.5608336648  W2        16683           0.0000000000
     47608     15870  TIP3      OH2            24.8976294280       58.3110775841        8.5719836648  W2        16684           0.0000000000
     47609     15870  TIP3      H1             23.9867394280       58.3677575841        8.8605836648  W2        16684           0.0000000000
     47610     15870  TIP3      H2             25.4029194280       58.2506275841        9.3827036648  W2        16684           0.0000000000
     47611     15871  TIP3      OH2            29.3028194280       57.5457075841       11.8361636648  W2        16685           0.0000000000
     47612     15871  TIP3      H1             28.6259794280       57.6770175841       12.5001336648  W2        16685           0.0000000000
     47613     15871  TIP3      H2             28.8173094280       57.3906575841       11.0259336648  W2        16685           0.0000000000
     47614     15872  TIP3      OH2            21.2195694280       57.2349875841        6.8774236648  W2        16686           0.0000000000
     47615     15872  TIP3      H1             20.9025194280       56.3325175841        6.8419636648  W2        16686           0.0000000000
     47616     15872  TIP3      H2             22.0009794280       57.2367275841        6.3245836648  W2        16686           0.0000000000
     47617     15873  TIP3      OH2            29.2861294280       58.5137475841        2.7568836648  W2        16687           0.0000000000
     47618     15873  TIP3      H1             28.3475494280       58.6253075841        2.6057636648  W2        16687           0.0000000000
     47619     15873  TIP3      H2             29.5833394280       59.3704375841        3.0634536648  W2        16687           0.0000000000
     47620     15874  TIP3      OH2            19.1551994280       58.2087175841       15.2004036648  W2        16688           0.0000000000
     47621     15874  TIP3      H1             18.2624294280       58.5472575841       15.1328036648  W2        16688           0.0000000000
     47622     15874  TIP3      H2             19.0564794280       57.3533275841       15.6184836648  W2        16688           0.0000000000
     47623     15875  TIP3      OH2            27.8895394280       57.9497475841       14.0902636648  W2        16689           0.0000000000
     47624     15875  TIP3      H1             28.5883294280       58.0236175841       14.7402336648  W2        16689           0.0000000000
     47625     15875  TIP3      H2             27.5086794280       57.0852475841       14.2445536648  W2        16689           0.0000000000
     47626     15876  TIP3      OH2            28.6740294280       57.6019175841        5.1874936648  W2        16690           0.0000000000
     47627     15876  TIP3      H1             28.8938594280       58.0734575841        4.3840336648  W2        16690           0.0000000000
     47628     15876  TIP3      H2             29.2324294280       57.9961775841        5.8575536648  W2        16690           0.0000000000
     47629     15877  TIP3      OH2            26.7576894280       56.4110975841        6.9604436648  W2        16691           0.0000000000
     47630     15877  TIP3      H1             26.4110394280       57.0281575841        7.6048736648  W2        16691           0.0000000000
     47631     15877  TIP3      H2             27.4163794280       56.9116675841        6.4789936648  W2        16691           0.0000000000
     47632     15878  TIP3      OH2            22.4153894280       57.4740375841        3.6476936648  W2        16692           0.0000000000
     47633     15878  TIP3      H1             22.3318694280       58.3623475841        3.9943336648  W2        16692           0.0000000000
     47634     15878  TIP3      H2             23.3054194280       57.2087075841        3.8793736648  W2        16692           0.0000000000
     47635     15879  TIP3      OH2            32.6142394280       58.2230975841       16.0419636648  W2        16693           0.0000000000
     47636     15879  TIP3      H1             31.6978194280       58.4852675841       15.9543336648  W2        16693           0.0000000000
     47637     15879  TIP3      H2             32.9497394280       58.2199975841       15.1454936648  W2        16693           0.0000000000
     47638     15880  TIP3      OH2            19.7980394280       55.3472175841       10.4971836648  W2        16694           0.0000000000
     47639     15880  TIP3      H1             19.5690194280       55.4064675841        9.5696836648  W2        16694           0.0000000000
     47640     15880  TIP3      H2             19.3553794280       54.5557675841       10.8035936648  W2        16694           0.0000000000
     47641     15881  TIP3      OH2            23.4553094280       57.6442675841       14.3112636648  W2        16695           0.0000000000
     47642     15881  TIP3      H1             23.9910594280       58.0959375841       13.6591936648  W2        16695           0.0000000000
     47643     15881  TIP3      H2             22.6032694280       57.5362475841       13.8886736648  W2        16695           0.0000000000
     47644     15882  TIP3      OH2            24.2608594280       55.1008375841       14.7426236648  W2        16696           0.0000000000
     47645     15882  TIP3      H1             24.1628194280       56.0471575841       14.6372436648  W2        16696           0.0000000000
     47646     15882  TIP3      H2             23.5184794280       54.7282175841       14.2669736648  W2        16696           0.0000000000
     47647     15883  TIP3      OH2            28.2405694280       58.5497275841       17.3818136648  W2        16697           0.0000000000
     47648     15883  TIP3      H1             27.2931094280       58.5816975841       17.5141436648  W2        16697           0.0000000000
     47649     15883  TIP3      H2             28.5532394280       57.9244375841       18.0356336648  W2        16697           0.0000000000
     47650     15884  TIP3      OH2            24.4826694280       54.3945775841       17.4139036648  W2        16700           0.0000000000
     47651     15884  TIP3      H1             25.1945094280       53.7547975841       17.3998136648  W2        16700           0.0000000000
     47652     15884  TIP3      H2             24.3817094280       54.6614075841       16.5002136648  W2        16700           0.0000000000
     47653     15885  TIP3      OH2            32.5927394280       58.0954375841        0.9463836648  W2        16702           0.0000000000
     47654     15885  TIP3      H1             33.2033194280       57.7241175841        1.5832036648  W2        16702           0.0000000000
     47655     15885  TIP3      H2             31.7558894280       57.6741275841        1.1423836648  W2        16702           0.0000000000
     47656     15886  TIP3      OH2            32.8387894280       56.9132075841        5.9605736648  W2        16704           0.0000000000
     47657     15886  TIP3      H1             33.0212894280       56.4643575841        6.7860736648  W2        16704           0.0000000000
     47658     15886  TIP3      H2             32.2390794280       56.3286475841        5.4970336648  W2        16704           0.0000000000
     47659     15887  TIP3      OH2            18.3687994280       57.7285775841       10.4924136648  W2        16705           0.0000000000
     47660     15887  TIP3      H1             18.8139594280       56.9368275841       10.7943836648  W2        16705           0.0000000000
     47661     15887  TIP3      H2             18.8350994280       58.4450975841       10.9229736648  W2        16705           0.0000000000
     47662     15888  TIP3      OH2            34.7054094280       56.9810175841        2.4886036648  W2        16707           0.0000000000
     47663     15888  TIP3      H1             35.1176694280       56.2595875841        2.0134036648  W2        16707           0.0000000000
     47664     15888  TIP3      H2             35.3870594280       57.6504775841        2.5470336648  W2        16707           0.0000000000
     47665     15889  TIP3      OH2            16.9864794280       56.9857875841        5.6156736648  W2        16708           0.0000000000
     47666     15889  TIP3      H1             16.0613194280       57.1944475841        5.4862236648  W2        16708           0.0000000000
     47667     15889  TIP3      H2             17.4404694280       57.4698675841        4.9259036648  W2        16708           0.0000000000
     47668     15890  TIP3      OH2            16.9500194280       55.7236875841       13.9599236648  W2        16709           0.0000000000
     47669     15890  TIP3      H1             16.2850694280       55.4777175841       14.6030136648  W2        16709           0.0000000000
     47670     15890  TIP3      H2             16.5071494280       56.3457275841       13.3827236648  W2        16709           0.0000000000
     47671     15891  TIP3      OH2            33.6697994280       55.1476575841       15.6459136648  W2        16710           0.0000000000
     47672     15891  TIP3      H1             32.8571494280       55.4726875841       15.2583836648  W2        16710           0.0000000000
     47673     15891  TIP3      H2             33.9026494280       54.3875075841       15.1128236648  W2        16710           0.0000000000
     47674     15892  TIP3      OH2            27.0996494280       56.5967175841        9.9687336648  W2        16711           0.0000000000
     47675     15892  TIP3      H1             26.4253294280       55.9672775841       10.2243136648  W2        16711           0.0000000000
     47676     15892  TIP3      H2             27.6635694280       56.1126075841        9.3655236648  W2        16711           0.0000000000
     47677     15893  TIP3      OH2            32.2423694280       54.7041175841       10.0814436648  W2        16712           0.0000000000
     47678     15893  TIP3      H1             32.8461294280       55.2516575841        9.5795436648  W2        16712           0.0000000000
     47679     15893  TIP3      H2             31.3725694280       55.0231575841        9.8408536648  W2        16712           0.0000000000
     47680     15894  TIP3      OH2            33.9694094280       55.8429875841        8.4145336648  W2        16713           0.0000000000
     47681     15894  TIP3      H1             34.5811594280       55.3285575841        7.8878936648  W2        16713           0.0000000000
     47682     15894  TIP3      H2             34.3517494280       56.7201975841        8.4379736648  W2        16713           0.0000000000
     47683     15895  TIP3      OH2            19.4263994280       55.2307475841        7.7907236648  W2        16714           0.0000000000
     47684     15895  TIP3      H1             18.6493794280       54.9962375841        7.2833136648  W2        16714           0.0000000000
     47685     15895  TIP3      H2             19.9567594280       54.4339575841        7.7995236648  W2        16714           0.0000000000
     47686     15896  TIP3      OH2            18.2627394280       55.0285575841        3.5943336648  W2        16715           0.0000000000
     47687     15896  TIP3      H1             18.7018094280       55.6396075841        3.0026836648  W2        16715           0.0000000000
     47688     15896  TIP3      H2             17.6289794280       55.5669675841        4.0683336648  W2        16715           0.0000000000
     47689     15897  TIP3      OH2            24.0056594280       55.1574575841        7.6040336648  W2        16716           0.0000000000
     47690     15897  TIP3      H1             24.8799994280       55.5458875841        7.5744636648  W2        16716           0.0000000000
     47691     15897  TIP3      H2             23.8697394280       54.9422375841        8.5267536648  W2        16716           0.0000000000
     47692     15898  TIP3      OH2            29.5624994280       55.1874375841        9.2532036648  W2        16717           0.0000000000
     47693     15898  TIP3      H1             29.6386594280       55.2825975841        8.3038036648  W2        16717           0.0000000000
     47694     15898  TIP3      H2             29.2874194280       54.2797275841        9.3821136648  W2        16717           0.0000000000
     47695     15899  TIP3      OH2            30.9157594280       55.2132175841        4.9457036648  W2        16718           0.0000000000
     47696     15899  TIP3      H1             30.2128694280       55.8281375841        4.7358436648  W2        16718           0.0000000000
     47697     15899  TIP3      H2             30.4708994280       54.3758875841        5.0767936648  W2        16718           0.0000000000
     47698     15900  TIP3      OH2            20.1236494280       56.9447075841        2.0367436648  W2        16719           0.0000000000
     47699     15900  TIP3      H1             20.6149894280       56.3149475841        1.5092936648  W2        16719           0.0000000000
     47700     15900  TIP3      H2             20.7472794280       57.2406475841        2.6998636648  W2        16719           0.0000000000
     47701     15901  TIP3      OH2            25.1496594280       57.2378575841        4.4937936648  W2        16720           0.0000000000
     47702     15901  TIP3      H1             25.3277894280       56.5911775841        5.1766536648  W2        16720           0.0000000000
     47703     15901  TIP3      H2             25.0962794280       58.0716275841        4.9609036648  W2        16720           0.0000000000
     47704     15902  TIP3      OH2            19.3841994280       55.7449375841       17.3083436648  W2        16721           0.0000000000
     47705     15902  TIP3      H1             19.0180194280       54.9791975841       17.7508136648  W2        16721           0.0000000000
     47706     15902  TIP3      H2             20.2970494280       55.7739575841       17.5948536648  W2        16721           0.0000000000
     47707     15903  TIP3      OH2            53.3462094280       57.6757175841       12.4350136648  W2        16724           0.0000000000
     47708     15903  TIP3      H1             53.3954294280       58.2858375841       13.1709236648  W2        16724           0.0000000000
     47709     15903  TIP3      H2             53.7717194280       58.1368075841       11.7121236648  W2        16724           0.0000000000
     47710     15904  TIP3      OH2            40.9787594280       58.5700675841        9.1743536648  W2        16725           0.0000000000
     47711     15904  TIP3      H1             41.0218694280       59.4299175841        8.7559836648  W2        16725           0.0000000000
     47712     15904  TIP3      H2             40.5211694280       58.0175375841        8.5406736648  W2        16725           0.0000000000
     47713     15905  TIP3      OH2            39.7889494280       57.4879075841       13.2484336648  W2        16726           0.0000000000
     47714     15905  TIP3      H1             39.5701194280       58.0179675841       12.4820336648  W2        16726           0.0000000000
     47715     15905  TIP3      H2             39.1210394280       57.7144575841       13.8955736648  W2        16726           0.0000000000
     47716     15906  TIP3      OH2            50.4648694280       57.9915575841        9.5557736648  W2        16727           0.0000000000
     47717     15906  TIP3      H1             50.2496694280       57.2258975841       10.0883736648  W2        16727           0.0000000000
     47718     15906  TIP3      H2             51.1206094280       58.4640175841       10.0686236648  W2        16727           0.0000000000
     47719     15907  TIP3      OH2            50.8122794280       56.7066875841       13.2351236648  W2        16728           0.0000000000
     47720     15907  TIP3      H1             50.0761994280       57.3173975841       13.1972536648  W2        16728           0.0000000000
     47721     15907  TIP3      H2             51.4956794280       57.1215875841       12.7087636648  W2        16728           0.0000000000
     47722     15908  TIP3      OH2            43.8154194280       54.7934175841       10.7009236648  W2        16729           0.0000000000
     47723     15908  TIP3      H1             43.6978394280       53.8450175841       10.6467536648  W2        16729           0.0000000000
     47724     15908  TIP3      H2             42.9604294280       55.1260275841       10.9740336648  W2        16729           0.0000000000
     47725     15909  TIP3      OH2            52.0574694280       54.7526375841        3.6511836648  W2        16730           0.0000000000
     47726     15909  TIP3      H1             51.1575394280       54.8915375841        3.9462436648  W2        16730           0.0000000000
     47727     15909  TIP3      H2             52.3093094280       55.5840975841        3.2493536648  W2        16730           0.0000000000
     47728     15910  TIP3      OH2            41.0841794280       55.6968675841       11.4785536648  W2        16731           0.0000000000
     47729     15910  TIP3      H1             40.2225494280       55.6096875841       11.0708436648  W2        16731           0.0000000000
     47730     15910  TIP3      H2             41.0617494280       56.5528775841       11.9063136648  W2        16731           0.0000000000
     47731     15911  TIP3      OH2            45.7469594280       55.4189075841       14.8532536648  W2        16732           0.0000000000
     47732     15911  TIP3      H1             46.1672694280       55.0036175841       15.6063136648  W2        16732           0.0000000000
     47733     15911  TIP3      H2             44.8139194280       55.2402375841       14.9704536648  W2        16732           0.0000000000
     47734     15912  TIP3      OH2            45.4086894280       57.9112475841        2.1383336648  W2        16733           0.0000000000
     47735     15912  TIP3      H1             45.1551694280       57.9304075841        3.0611436648  W2        16733           0.0000000000
     47736     15912  TIP3      H2             45.1518994280       57.0397875841        1.8369536648  W2        16733           0.0000000000
     47737     15913  TIP3      OH2            42.2909794280       58.3568975841        1.2393736648  W2        16734           0.0000000000
     47738     15913  TIP3      H1             41.8600494280       57.9119075841        1.9691136648  W2        16734           0.0000000000
     47739     15913  TIP3      H2             41.5728494280       58.7285275841        0.7271236648  W2        16734           0.0000000000
     47740     15914  TIP3      OH2            35.5333194280       58.0988475841        8.2912436648  W2        16735           0.0000000000
     47741     15914  TIP3      H1             36.1640894280       58.0700575841        9.0106336648  W2        16735           0.0000000000
     47742     15914  TIP3      H2             35.9827494280       57.6737175841        7.5608336648  W2        16735           0.0000000000
     47743     15915  TIP3      OH2            43.7536294280       58.3110775841        8.5719836648  W2        16736           0.0000000000
     47744     15915  TIP3      H1             42.8427394280       58.3677575841        8.8605836648  W2        16736           0.0000000000
     47745     15915  TIP3      H2             44.2589194280       58.2506275841        9.3827036648  W2        16736           0.0000000000
     47746     15916  TIP3      OH2            48.1588194280       57.5457075841       11.8361636648  W2        16737           0.0000000000
     47747     15916  TIP3      H1             47.4819794280       57.6770175841       12.5001336648  W2        16737           0.0000000000
     47748     15916  TIP3      H2             47.6733094280       57.3906575841       11.0259336648  W2        16737           0.0000000000
     47749     15917  TIP3      OH2            40.0755694280       57.2349875841        6.8774236648  W2        16738           0.0000000000
     47750     15917  TIP3      H1             39.7585194280       56.3325175841        6.8419636648  W2        16738           0.0000000000
     47751     15917  TIP3      H2             40.8569794280       57.2367275841        6.3245836648  W2        16738           0.0000000000
     47752     15918  TIP3      OH2            48.1421294280       58.5137475841        2.7568836648  W2        16739           0.0000000000
     47753     15918  TIP3      H1             47.2035494280       58.6253075841        2.6057636648  W2        16739           0.0000000000
     47754     15918  TIP3      H2             48.4393394280       59.3704375841        3.0634536648  W2        16739           0.0000000000
     47755     15919  TIP3      OH2            38.0111994280       58.2087175841       15.2004036648  W2        16740           0.0000000000
     47756     15919  TIP3      H1             37.1184294280       58.5472575841       15.1328036648  W2        16740           0.0000000000
     47757     15919  TIP3      H2             37.9124794280       57.3533275841       15.6184836648  W2        16740           0.0000000000
     47758     15920  TIP3      OH2            46.7455394280       57.9497475841       14.0902636648  W2        16741           0.0000000000
     47759     15920  TIP3      H1             47.4443294280       58.0236175841       14.7402336648  W2        16741           0.0000000000
     47760     15920  TIP3      H2             46.3646794280       57.0852475841       14.2445536648  W2        16741           0.0000000000
     47761     15921  TIP3      OH2            47.5300294280       57.6019175841        5.1874936648  W2        16742           0.0000000000
     47762     15921  TIP3      H1             47.7498594280       58.0734575841        4.3840336648  W2        16742           0.0000000000
     47763     15921  TIP3      H2             48.0884294280       57.9961775841        5.8575536648  W2        16742           0.0000000000
     47764     15922  TIP3      OH2            45.6136894280       56.4110975841        6.9604436648  W2        16743           0.0000000000
     47765     15922  TIP3      H1             45.2670394280       57.0281575841        7.6048736648  W2        16743           0.0000000000
     47766     15922  TIP3      H2             46.2723794280       56.9116675841        6.4789936648  W2        16743           0.0000000000
     47767     15923  TIP3      OH2            41.2713894280       57.4740375841        3.6476936648  W2        16744           0.0000000000
     47768     15923  TIP3      H1             41.1878694280       58.3623475841        3.9943336648  W2        16744           0.0000000000
     47769     15923  TIP3      H2             42.1614194280       57.2087075841        3.8793736648  W2        16744           0.0000000000
     47770     15924  TIP3      OH2            51.4702394280       58.2230975841       16.0419636648  W2        16745           0.0000000000
     47771     15924  TIP3      H1             50.5538194280       58.4852675841       15.9543336648  W2        16745           0.0000000000
     47772     15924  TIP3      H2             51.8057394280       58.2199975841       15.1454936648  W2        16745           0.0000000000
     47773     15925  TIP3      OH2            38.6540394280       55.3472175841       10.4971836648  W2        16746           0.0000000000
     47774     15925  TIP3      H1             38.4250194280       55.4064675841        9.5696836648  W2        16746           0.0000000000
     47775     15925  TIP3      H2             38.2113794280       54.5557675841       10.8035936648  W2        16746           0.0000000000
     47776     15926  TIP3      OH2            42.3113094280       57.6442675841       14.3112636648  W2        16747           0.0000000000
     47777     15926  TIP3      H1             42.8470594280       58.0959375841       13.6591936648  W2        16747           0.0000000000
     47778     15926  TIP3      H2             41.4592694280       57.5362475841       13.8886736648  W2        16747           0.0000000000
     47779     15927  TIP3      OH2            43.1168594280       55.1008375841       14.7426236648  W2        16748           0.0000000000
     47780     15927  TIP3      H1             43.0188194280       56.0471575841       14.6372436648  W2        16748           0.0000000000
     47781     15927  TIP3      H2             42.3744794280       54.7282175841       14.2669736648  W2        16748           0.0000000000
     47782     15928  TIP3      OH2            47.0965694280       58.5497275841       17.3818136648  W2        16749           0.0000000000
     47783     15928  TIP3      H1             46.1491094280       58.5816975841       17.5141436648  W2        16749           0.0000000000
     47784     15928  TIP3      H2             47.4092394280       57.9244375841       18.0356336648  W2        16749           0.0000000000
     47785     15929  TIP3      OH2            43.3386694280       54.3945775841       17.4139036648  W2        16752           0.0000000000
     47786     15929  TIP3      H1             44.0505094280       53.7547975841       17.3998136648  W2        16752           0.0000000000
     47787     15929  TIP3      H2             43.2377094280       54.6614075841       16.5002136648  W2        16752           0.0000000000
     47788     15930  TIP3      OH2            51.4487394280       58.0954375841        0.9463836648  W2        16754           0.0000000000
     47789     15930  TIP3      H1             52.0593194280       57.7241175841        1.5832036648  W2        16754           0.0000000000
     47790     15930  TIP3      H2             50.6118894280       57.6741275841        1.1423836648  W2        16754           0.0000000000
     47791     15931  TIP3      OH2            51.6947894280       56.9132075841        5.9605736648  W2        16756           0.0000000000
     47792     15931  TIP3      H1             51.8772894280       56.4643575841        6.7860736648  W2        16756           0.0000000000
     47793     15931  TIP3      H2             51.0950794280       56.3286475841        5.4970336648  W2        16756           0.0000000000
     47794     15932  TIP3      OH2            37.2247994280       57.7285775841       10.4924136648  W2        16757           0.0000000000
     47795     15932  TIP3      H1             37.6699594280       56.9368275841       10.7943836648  W2        16757           0.0000000000
     47796     15932  TIP3      H2             37.6910994280       58.4450975841       10.9229736648  W2        16757           0.0000000000
     47797     15933  TIP3      OH2            53.5614094280       56.9810175841        2.4886036648  W2        16759           0.0000000000
     47798     15933  TIP3      H1             53.9736694280       56.2595875841        2.0134036648  W2        16759           0.0000000000
     47799     15933  TIP3      H2             54.2430594280       57.6504775841        2.5470336648  W2        16759           0.0000000000
     47800     15934  TIP3      OH2            35.8424794280       56.9857875841        5.6156736648  W2        16760           0.0000000000
     47801     15934  TIP3      H1             34.9173194280       57.1944475841        5.4862236648  W2        16760           0.0000000000
     47802     15934  TIP3      H2             36.2964694280       57.4698675841        4.9259036648  W2        16760           0.0000000000
     47803     15935  TIP3      OH2            35.8060194280       55.7236875841       13.9599236648  W2        16761           0.0000000000
     47804     15935  TIP3      H1             35.1410694280       55.4777175841       14.6030136648  W2        16761           0.0000000000
     47805     15935  TIP3      H2             35.3631494280       56.3457275841       13.3827236648  W2        16761           0.0000000000
     47806     15936  TIP3      OH2            52.5257994280       55.1476575841       15.6459136648  W2        16762           0.0000000000
     47807     15936  TIP3      H1             51.7131494280       55.4726875841       15.2583836648  W2        16762           0.0000000000
     47808     15936  TIP3      H2             52.7586494280       54.3875075841       15.1128236648  W2        16762           0.0000000000
     47809     15937  TIP3      OH2            45.9556494280       56.5967175841        9.9687336648  W2        16763           0.0000000000
     47810     15937  TIP3      H1             45.2813294280       55.9672775841       10.2243136648  W2        16763           0.0000000000
     47811     15937  TIP3      H2             46.5195694280       56.1126075841        9.3655236648  W2        16763           0.0000000000
     47812     15938  TIP3      OH2            51.0983694280       54.7041175841       10.0814436648  W2        16764           0.0000000000
     47813     15938  TIP3      H1             51.7021294280       55.2516575841        9.5795436648  W2        16764           0.0000000000
     47814     15938  TIP3      H2             50.2285694280       55.0231575841        9.8408536648  W2        16764           0.0000000000
     47815     15939  TIP3      OH2            52.8254094280       55.8429875841        8.4145336648  W2        16765           0.0000000000
     47816     15939  TIP3      H1             53.4371594280       55.3285575841        7.8878936648  W2        16765           0.0000000000
     47817     15939  TIP3      H2             53.2077494280       56.7201975841        8.4379736648  W2        16765           0.0000000000
     47818     15940  TIP3      OH2            38.2823994280       55.2307475841        7.7907236648  W2        16766           0.0000000000
     47819     15940  TIP3      H1             37.5053794280       54.9962375841        7.2833136648  W2        16766           0.0000000000
     47820     15940  TIP3      H2             38.8127594280       54.4339575841        7.7995236648  W2        16766           0.0000000000
     47821     15941  TIP3      OH2            37.1187394280       55.0285575841        3.5943336648  W2        16767           0.0000000000
     47822     15941  TIP3      H1             37.5578094280       55.6396075841        3.0026836648  W2        16767           0.0000000000
     47823     15941  TIP3      H2             36.4849794280       55.5669675841        4.0683336648  W2        16767           0.0000000000
     47824     15942  TIP3      OH2            42.8616594280       55.1574575841        7.6040336648  W2        16768           0.0000000000
     47825     15942  TIP3      H1             43.7359994280       55.5458875841        7.5744636648  W2        16768           0.0000000000
     47826     15942  TIP3      H2             42.7257394280       54.9422375841        8.5267536648  W2        16768           0.0000000000
     47827     15943  TIP3      OH2            48.4184994280       55.1874375841        9.2532036648  W2        16769           0.0000000000
     47828     15943  TIP3      H1             48.4946594280       55.2825975841        8.3038036648  W2        16769           0.0000000000
     47829     15943  TIP3      H2             48.1434194280       54.2797275841        9.3821136648  W2        16769           0.0000000000
     47830     15944  TIP3      OH2            49.7717594280       55.2132175841        4.9457036648  W2        16770           0.0000000000
     47831     15944  TIP3      H1             49.0688694280       55.8281375841        4.7358436648  W2        16770           0.0000000000
     47832     15944  TIP3      H2             49.3268994280       54.3758875841        5.0767936648  W2        16770           0.0000000000
     47833     15945  TIP3      OH2            38.9796494280       56.9447075841        2.0367436648  W2        16771           0.0000000000
     47834     15945  TIP3      H1             39.4709894280       56.3149475841        1.5092936648  W2        16771           0.0000000000
     47835     15945  TIP3      H2             39.6032794280       57.2406475841        2.6998636648  W2        16771           0.0000000000
     47836     15946  TIP3      OH2            44.0056594280       57.2378575841        4.4937936648  W2        16772           0.0000000000
     47837     15946  TIP3      H1             44.1837894280       56.5911775841        5.1766536648  W2        16772           0.0000000000
     47838     15946  TIP3      H2             43.9522794280       58.0716275841        4.9609036648  W2        16772           0.0000000000
     47839     15947  TIP3      OH2            38.2401994280       55.7449375841       17.3083436648  W2        16773           0.0000000000
     47840     15947  TIP3      H1             37.8740194280       54.9791975841       17.7508136648  W2        16773           0.0000000000
     47841     15947  TIP3      H2             39.1530494280       55.7739575841       17.5948536648  W2        16773           0.0000000000
     47842     15948  TIP3      OH2            54.3893194280       58.0988475841        8.2912436648  W2        16776           0.0000000000
     47843     15948  TIP3      H1             55.0200894280       58.0700575841        9.0106336648  W2        16776           0.0000000000
     47844     15948  TIP3      H2             54.8387494280       57.6737175841        7.5608336648  W2        16776           0.0000000000
     47845     15949  TIP3      OH2            56.8671994280       58.2087175841       15.2004036648  W2        16777           0.0000000000
     47846     15949  TIP3      H1             55.9744294280       58.5472575841       15.1328036648  W2        16777           0.0000000000
     47847     15949  TIP3      H2             56.7684794280       57.3533275841       15.6184836648  W2        16777           0.0000000000
     47848     15950  TIP3      OH2            57.5100394280       55.3472175841       10.4971836648  W2        16778           0.0000000000
     47849     15950  TIP3      H1             57.2810194280       55.4064675841        9.5696836648  W2        16778           0.0000000000
     47850     15950  TIP3      H2             57.0673794280       54.5557675841       10.8035936648  W2        16778           0.0000000000
     47851     15951  TIP3      OH2            56.0807994280       57.7285775841       10.4924136648  W2        16780           0.0000000000
     47852     15951  TIP3      H1             56.5259594280       56.9368275841       10.7943836648  W2        16780           0.0000000000
     47853     15951  TIP3      H2             56.5470994280       58.4450975841       10.9229736648  W2        16780           0.0000000000
     47854     15952  TIP3      OH2            54.6984794280       56.9857875841        5.6156736648  W2        16781           0.0000000000
     47855     15952  TIP3      H1             53.7733194280       57.1944475841        5.4862236648  W2        16781           0.0000000000
     47856     15952  TIP3      H2             55.1524694280       57.4698675841        4.9259036648  W2        16781           0.0000000000
     47857     15953  TIP3      OH2            54.6620194280       55.7236875841       13.9599236648  W2        16782           0.0000000000
     47858     15953  TIP3      H1             53.9970694280       55.4777175841       14.6030136648  W2        16782           0.0000000000
     47859     15953  TIP3      H2             54.2191494280       56.3457275841       13.3827236648  W2        16782           0.0000000000
     47860     15954  TIP3      OH2            57.1383994280       55.2307475841        7.7907236648  W2        16783           0.0000000000
     47861     15954  TIP3      H1             56.3613794280       54.9962375841        7.2833136648  W2        16783           0.0000000000
     47862     15954  TIP3      H2             57.6687594280       54.4339575841        7.7995236648  W2        16783           0.0000000000
     47863     15955  TIP3      OH2            55.9747394280       55.0285575841        3.5943336648  W2        16784           0.0000000000
     47864     15955  TIP3      H1             56.4138094280       55.6396075841        3.0026836648  W2        16784           0.0000000000
     47865     15955  TIP3      H2             55.3409794280       55.5669675841        4.0683336648  W2        16784           0.0000000000
     47866     15956  TIP3      OH2            57.8356494280       56.9447075841        2.0367436648  W2        16785           0.0000000000
     47867     15956  TIP3      H1             58.3269894280       56.3149475841        1.5092936648  W2        16785           0.0000000000
     47868     15956  TIP3      H2             58.4592794280       57.2406475841        2.6998636648  W2        16785           0.0000000000
     47869     15957  TIP3      OH2            57.0961994280       55.7449375841       17.3083436648  W2        16786           0.0000000000
     47870     15957  TIP3      H1             56.7300194280       54.9791975841       17.7508136648  W2        16786           0.0000000000
     47871     15957  TIP3      H2             58.0090494280       55.7739575841       17.5948536648  W2        16786           0.0000000000
