* GENERATED BY CHARMM-GUI (HTTP://WWW.CHARMM-GUI.ORG) V3.7 ON JUN, 01. 2026. JOB
* GENERATES LIPID PACKING USING BIG SPHERES
*  DATE:     6/ 1/26      0:45:51      CREATED BY USER: charmm-gui
*
       312  EXT
         1         1  CHL1      POLO           14.5015687831      -33.4038707638       11.8692395188  HEAD      1               0.0000000000
         2         2  CHL1      POLO           -5.7244365446      -54.4341779587       12.0431732193  HEAD      2               0.0000000000
         3         3  CHL1      POLO           42.4815594589       -7.4371319083       12.0613073609  HEAD      3               0.0000000000
         4         4  CHL1      POLO          -57.6137931652      -35.8544972257       12.0937123887  HEAD      4               0.0000000000
         5         5  CHL1      POLO          -41.3251156054      -40.2466601248       11.9562329282  HEAD      5               0.0000000000
         6         6  CHL1      POLO          -35.5106918843      -33.9322036984       11.8968983296  HEAD      6               0.0000000000
         7         7  CHL1      POLO          -52.9198719911        1.5056074066       12.0805838158  HEAD      7               0.0000000000
         8         8  CHL1      POLO          -51.9258907763      -52.8185494269       12.0246933242  HEAD      8               0.0000000000
         9         9  CHL1      POLO           52.8826860745       29.5420075541       11.9721474921  HEAD      9               0.0000000000
        10        10  CHL1      POLO           55.7951215707       12.6973245771       11.9013782568  HEAD      10              0.0000000000
        11        11  CHL1      POLO           21.6645414989       30.5423484387       11.7260678062  HEAD      11              0.0000000000
        12        12  CHL1      POLO           12.4186197783      -56.3022794090       11.9981963705  HEAD      12              0.0000000000
        13        13  CHL1      POLO            9.6242824677       47.0357440458       12.0601713686  HEAD      13              0.0000000000
        14        14  CHL1      POLO           54.3712260721       52.1673951210       11.8822929587  HEAD      14              0.0000000000
        15        15  CHL1      POLO           50.9021682248      -10.0379538162       12.0024581869  HEAD      15              0.0000000000
        16        16  CHL1      POLO           26.5412856705      -51.0489089066       12.0241585952  HEAD      16              0.0000000000
        17        17  CHL1      POLO          -25.0645846655      -44.8764555329       11.8435539709  HEAD      17              0.0000000000
        18        18  CHL1      POLO          -51.9952204809      -29.3439579000       12.0061119800  HEAD      18              0.0000000000
        19        19  CHL1      POLO           39.9574166161       48.5391329791       11.8503728396  HEAD      19              0.0000000000
        20        20  CHL1      POLO          -26.1434573061       34.4718509166       11.9784683570  HEAD      20              0.0000000000
        21        21  CHL1      POLO          -57.3722541514       58.1472438011       12.0859068132  HEAD      21              0.0000000000
        22        22  CHL1      POLO          -46.2154639347      -23.2654652187       12.0949228894  HEAD      22              0.0000000000
        23        23  CHL1      POLO           27.5098380609      -27.4867362348       12.0490979082  HEAD      23              0.0000000000
        24        24  CHL1      POLO           32.5188752119      -20.8550620988       11.9845476428  HEAD      24              0.0000000000
        25        25  CHL1      POLO          -46.8213278159       15.9941317454       12.0116957430  HEAD      25              0.0000000000
        26        26  CHL1      POLO          -27.6672599864       57.8676205347       11.9339366479  HEAD      26              0.0000000000
        27        27  CHL1      POLO           20.8982505540      -57.6725573795       12.0263833933  HEAD      27              0.0000000000
        28        28  CHL1      POLO           40.6860119617      -23.1154321400       11.9068020905  HEAD      28              0.0000000000
        29        29  CHL1      POLO           12.1500803723       39.1631000583       11.8489796301  HEAD      29              0.0000000000
        30        30  CHL1      POLO          -43.4568954178      -31.1558843826       12.0284692510  HEAD      30              0.0000000000
        31        31  CHL1      POLO          -54.7025481055       18.5847178675       12.0294973369  HEAD      31              0.0000000000
        32        32  POPC      POLO           51.5682336240      -56.8486437052       11.8920552972  HEAD      32              0.0000000000
        33        33  POPC      POLO          -16.0082464731       31.6171012716       11.9266500318  HEAD      33              0.0000000000
        34        34  POPC      POLO          -27.5965403281      -36.5993729594       11.9813263854  HEAD      34              0.0000000000
        35        35  POPC      POLO           23.4344706343      -43.0178515454       11.9620318056  HEAD      35              0.0000000000
        36        36  POPC      POLO           54.4629007287      -42.2038950242       11.9095447542  HEAD      36              0.0000000000
        37        37  POPC      POLO            6.9743175542       54.7883887025       12.0947549707  HEAD      37              0.0000000000
        38        38  POPC      POLO          -32.6364014960       51.1653112093       11.9679007178  HEAD      38              0.0000000000
        39        39  POPC      POLO           -7.4826595850       49.1287377485       12.1843875991  HEAD      39              0.0000000000
        40        40  POPC      POLO           34.0631915730       42.2480316411       12.0818128084  HEAD      40              0.0000000000
        41        41  POPC      POLO          -55.0383108454      -44.2280837035       12.0974727871  HEAD      41              0.0000000000
        42        42  POPC      POLO           38.2046983248       26.0198095251       11.9722654312  HEAD      42              0.0000000000
        43        43  POPC      POLO           42.6766087349       40.3440720324       12.1237318610  HEAD      43              0.0000000000
        44        44  POPC      POLO          -39.1005303720       12.5642055937       11.9976903626  HEAD      44              0.0000000000
        45        45  POPC      POLO           14.3607020553      -41.5636431819       11.9588360997  HEAD      45              0.0000000000
        46        46  POPC      POLO            3.5727763530       40.4292549480       12.0015193760  HEAD      46              0.0000000000
        47        47  POPC      POLO           32.0473354873       50.7001506410       12.1083665874  HEAD      47              0.0000000000
        48        48  POPC      POLO          -52.0709868470       -7.4331941969       11.9659704930  HEAD      48              0.0000000000
        49        49  POPC      POLO          -58.1434819788       35.3145996444       12.0970514091  HEAD      49              0.0000000000
        50        50  POPC      POLO          -46.6021951087       47.1789829781       12.0000513559  HEAD      50              0.0000000000
        51        51  POPC      POLO           43.3202321000      -32.2190164496       11.9615668711  HEAD      51              0.0000000000
        52        52  POPC      POLO          -36.9306951736      -25.1472426670       11.9914929632  HEAD      52              0.0000000000
        53        53  POPC      POLO           48.8989505203      -48.7566488533       12.0372810399  HEAD      53              0.0000000000
        54        54  POPC      POLO          -54.9015981463       49.3313247137       11.8945149199  HEAD      54              0.0000000000
        55        55  POPC      POLO           40.2070291768       18.2665896207       12.0135884979  HEAD      55              0.0000000000
        56        56  POPC      POLO           46.5407814108       23.8224967812       12.0618316074  HEAD      56              0.0000000000
        57        57  POPC      POLO           54.2819250072      -19.2266600156       12.1308583663  HEAD      57              0.0000000000
        58        58  POPC      POLO          -12.6601370972       39.6331261666       12.0984127373  HEAD      58              0.0000000000
        59        59  POPC      POLO           26.8101992017       20.3509808219       12.0602029269  HEAD      59              0.0000000000
        60        60  POPC      POLO           38.5130685178      -14.7988881852       12.0266242197  HEAD      60              0.0000000000
        61        61  POPC      POLO          -30.4735711506      -50.9749225326       11.9671742308  HEAD      61              0.0000000000
        62        62  POPC      POLO          -11.7454295250      -39.2654446724       12.0142353941  HEAD      62              0.0000000000
        63        63  POPC      POLO          -16.9293389104      -46.1586024703       11.9090703246  HEAD      63              0.0000000000
        64        64  POPC      POLO          -44.0200348111      -55.3319262476       11.9788429124  HEAD      64              0.0000000000
        65        65  POPC      POLO           44.6471486691       31.8460283040       12.0168146138  HEAD      65              0.0000000000
        66        66  POPC      POLO           30.2524759739      -36.1725079807       11.9344192220  HEAD      66              0.0000000000
        67        67  POPC      POLO          -35.9602281297      -57.5302083318       11.9036920076  HEAD      67              0.0000000000
        68        68  POPC      POLO          -43.9232425817       38.5793587769       12.0482703463  HEAD      68              0.0000000000
        69        69  POPC      POLO           57.2311752580      -50.6995411343       12.0383976916  HEAD      69              0.0000000000
        70        70  POPC      POLO           32.1323519708      -44.5214276255       12.1109829265  HEAD      70              0.0000000000
        71        71  POPC      POLO          -45.5329637475       -2.6449285918       12.1077320040  HEAD      71              0.0000000000
        72        72  POPC      POLO           30.0373500955       27.9669535114       11.8979669898  HEAD      72              0.0000000000
        73        73  POPC      POLO          -19.3893267509       56.0177118974       12.1751852334  HEAD      73              0.0000000000
        74        74  POPC      POLO          -21.3143654473      -30.6378460941       11.7035871993  HEAD      74              0.0000000000
        75        75  POPC      POLO          -41.8834573379       -9.9111572662       11.9872212568  HEAD      75              0.0000000000
        76        76  POPC      POLO           -3.0056168352      -40.2449708887       11.9767451068  HEAD      76              0.0000000000
        77        77  POPC      POLO          -26.8747824993      -20.1635933971       11.8830817211  HEAD      77              0.0000000000
        78        78  POPC      POLO           23.7824507736       52.1828301979       12.0061292328  HEAD      78              0.0000000000
        79        79  POPC      POLO           51.7814810361      -33.7181609737       12.1024172365  HEAD      79              0.0000000000
        80        80  POPC      POLO          -49.3886421317      -37.8224516507       12.0505379312  HEAD      80              0.0000000000
        81        81  POPC      POLO           54.5795050707       20.9187158912       11.9711365337  HEAD      81              0.0000000000
        82        82  POPC      POLO           37.9986248248      -38.3207981113       11.9475704293  HEAD      82              0.0000000000
        83        83  POPC      POLO          -40.3237475407      -17.7737787216       12.0220597363  HEAD      83              0.0000000000
        84        84  POPC      POLO           29.2556590871       58.4702593630       12.0343385630  HEAD      84              0.0000000000
        85        85  POPC      POLO           35.3366140529      -29.4766705605       12.0284447788  HEAD      85              0.0000000000
        86        86  POPC      POLO            9.2456870370      -48.8671570325       12.0759148446  HEAD      86              0.0000000000
        87        87  POPC      POLO          -40.9312481540       53.2676705694       12.0681357300  HEAD      87              0.0000000000
        88        88  POPC      POLO          -24.3811155978       49.4440325088       12.0688259507  HEAD      88              0.0000000000
        89        89  POPC      POLO           43.4009802280      -54.8552106696       12.0338761759  HEAD      89              0.0000000000
        90        90  POPC      POLO          -31.2964902017       21.0869360738       11.9184255512  HEAD      90              0.0000000000
        91        91  POPC      POLO           -1.9815528204       55.7909210795       12.1281748313  HEAD      91              0.0000000000
        92        92  POPC      POLO          -32.8861099857       28.9642480300       12.0122876317  HEAD      92              0.0000000000
        93        93  POPC      POLO          -22.6711206865       26.2083680745       12.0349656799  HEAD      93              0.0000000000
        94        94  POPC      POLO          -49.0271637579       55.6324360761       11.9638750572  HEAD      94              0.0000000000
        95        95  POPC      POLO           32.8541340470       14.9543456489       11.9013912362  HEAD      95              0.0000000000
        96        96  POPC      POLO          -48.1825062097       24.3950259249       11.9560453409  HEAD      96              0.0000000000
        97        97  POPC      POLO           56.8078742056        4.2678378525       11.8774862323  HEAD      97              0.0000000000
        98        98  POPC      POLO          -38.2222770866       45.0647926266       12.0805495792  HEAD      98              0.0000000000
        99        99  POPC      POLO           -0.2279235923      -48.3160751472       11.8995836747  HEAD      99              0.0000000000
       100       100  POPC      POLO           19.5371680208      -27.1796917302       12.0916466378  HEAD      100             0.0000000000
       101       101  POPC      POLO            1.3275247199       48.4008856096       11.9103265898  HEAD      101             0.0000000000
       102       102  POPC      POLO          -15.9714315627       48.0787158760       11.9002309038  HEAD      102             0.0000000000
       103       103  POPC      POLO          -46.8021083575      -46.3934871920       11.8583110189  HEAD      103             0.0000000000
       104       104  POPC      POLO           41.0050045990        1.0978269624       11.9777941553  HEAD      104             0.0000000000
       105       105  POPC      POLO          -54.5820296593      -21.0036363172       12.0130191414  HEAD      105             0.0000000000
       106       106  POPC      POLO           48.5682481276      -25.7101962148       11.9500268844  HEAD      106             0.0000000000
       107       107  POPC      POLO          -35.6853700768       36.8662600268       11.9152964841  HEAD      107             0.0000000000
       108       108  POPC      POLO           34.9764707340      -52.8228239045       12.0338876999  HEAD      108             0.0000000000
       109       109  POPC      POLO           56.6676898024       43.6375875783       11.9956239568  HEAD      109             0.0000000000
       110       110  POPC      POLO           48.9611528990       -1.5224527975       11.9520567367  HEAD      110             0.0000000000
       111       111  POPC      POLO           57.3182758315       -4.3075417895       11.9128502601  HEAD      111             0.0000000000
       112       112  POPC      POLO          -22.5777102377      -52.7722240756       11.9511828337  HEAD      112             0.0000000000
       113       113  POPC      POLO          -56.3961864377       26.8711862427       12.0455629036  HEAD      113             0.0000000000
       114       114  POPC      POLO          -33.2438797616      -42.6241304762       12.0011604081  HEAD      114             0.0000000000
       115       115  POPC      POLO           48.9415552197        6.6964204006       11.9648926501  HEAD      115             0.0000000000
       116       116  POPC      POLO           17.9975999769       46.0082100214       11.9888060206  HEAD      116             0.0000000000
       117       117  POPC      POLO          -38.8423292375      -48.7156416112       11.9455059470  HEAD      117             0.0000000000
       118       118  POPC      POLO          -46.4861851335        7.3090386161       12.0664841528  HEAD      118             0.0000000000
       119       119  POPC      POLO          -19.6839716548      -38.3653039459       11.9566993328  HEAD      119             0.0000000000
       120       120  POPC      POLO           40.3397320330      -46.4838433438       12.1476129412  HEAD      120             0.0000000000
       121       121  POPC      POLO           15.4328919068       53.5436683590       12.1314705113  HEAD      121             0.0000000000
       122       122  POPC      POLO          -41.4560427457       29.9608087482       11.9971158764  HEAD      122             0.0000000000
       123       123  POPC      POLO           22.4536634557      -34.9540915655       12.0484892775  HEAD      123             0.0000000000
       124       124  POPC      POLO          -52.4622472364       41.1439225131       11.8856437102  HEAD      124             0.0000000000
       125       125  POPC      POLO          -40.0125754407        2.8577764828       12.1011504573  HEAD      125             0.0000000000
       126       126  POPC      POLO          -14.3114800296      -53.8782082649       12.1273581288  HEAD      126             0.0000000000
       127       127  POPC      POLO          -11.1771569605       56.3346926425       11.9625154213  HEAD      127             0.0000000000
       128       128  POPC      POLO           46.4470618445      -16.9456169110       12.0529632737  HEAD      128             0.0000000000
       129       129  POPC      POLO           47.9169903154       15.2981715872       11.9344448663  HEAD      129             0.0000000000
       130       130  POPC      POLO           37.6716826782       56.6601753861       12.0774636052  HEAD      130             0.0000000000
       131       131  POPC      POLO          -53.9648635200       10.1763129407       12.0520085083  HEAD      131             0.0000000000
       132       132  POPC      POLO           20.0837714198       38.2236330479       11.9714047018  HEAD      132             0.0000000000
       133       133  POPC      POLO           46.2119280818      -40.2267604112       12.0403915404  HEAD      133             0.0000000000
       134       134  POPC      POLO           48.2663132879       46.2899860541       11.9336094454  HEAD      134             0.0000000000
       135       135  POPC      POLO          -29.2775398287       42.6211747177       11.9668293287  HEAD      135             0.0000000000
       136       136  POPC      POLO           41.3858034124       10.3070433793       11.9353585426  HEAD      136             0.0000000000
       137       137  POPC      POLO          -32.9572567881      -14.8940225895       11.9255675058  HEAD      137             0.0000000000
       138       138  POPC      POLO           28.1592197329       36.0778512799       12.0979161097  HEAD      138             0.0000000000
       139       139  POPC      POLO           57.1520945866      -27.2243579089       11.9030101095  HEAD      139             0.0000000000
       140       140  POPC      POLO          -29.1651654337      -28.3233691110       11.9769543832  HEAD      140             0.0000000000
       141       141  POPC      POLO            5.1552165556      -42.1717472049       11.9411025789  HEAD      141             0.0000000000
       142       142  POPC      POLO            3.6449112274      -55.4348825752       11.9627990317  HEAD      142             0.0000000000
       143       143  POPC      POLO           45.9007991354       54.3259875808       11.9940458965  HEAD      143             0.0000000000
       144       144  POPC      POLO          -48.6727983495      -15.1136460874       11.8928680186  HEAD      144             0.0000000000
       145       145  POPC      POLO           -4.1793017506       42.1011166265       11.8675948869  HEAD      145             0.0000000000
       146       146  POPC      POLO           25.9484779879       44.1690436003       12.1257128963  HEAD      146             0.0000000000
       147       147  POPC      POLO           -8.3921560994      -46.7935756130       11.9820729074  HEAD      147             0.0000000000
       148       148  POPC      POLO          -58.0122688233      -13.0880763323       12.0592273326  HEAD      148             0.0000000000
       149       149  POPC      POLO           50.7061079122       37.6265101680       12.0266752988  HEAD      149             0.0000000000
       150       150  POPC      POLO          -20.8373355891       41.3653129516       12.0296091398  HEAD      150             0.0000000000
       151       151  POPC      POLO           36.3953317435       34.1262744200       12.2272730563  HEAD      151             0.0000000000
       152       152  POPC      POLO          -39.7477046523       21.5371225602       11.9498112415  HEAD      152             0.0000000000
       153       153  POPC      POLO          -50.0790121379       32.7229726932       11.9969384640  HEAD      153             0.0000000000
       154       154  POPC      POLO           17.8492431962      -49.6251224833       12.1521778250  HEAD      154             0.0000000000
       155       155  CHL1      POLO           16.9497064291      -32.0606756682      -11.9854311494  HEAD      155             0.0000000000
       156       156  CHL1      POLO          -39.8279073897      -41.2761778584      -11.8768829732  HEAD      156             0.0000000000
       157       157  CHL1      POLO           36.8041260548       23.0817759026      -11.8898644213  HEAD      157             0.0000000000
       158       158  CHL1      POLO          -38.0352399264      -25.3514335300      -11.8850365467  HEAD      158             0.0000000000
       159       159  CHL1      POLO          -53.6509777195       -0.0648284675      -12.0766902499  HEAD      159             0.0000000000
       160       160  CHL1      POLO           42.7969667180       28.8455456181      -11.9059403575  HEAD      160             0.0000000000
       161       161  CHL1      POLO           39.6591224355       -8.4977892393      -12.0943945362  HEAD      161             0.0000000000
       162       162  CHL1      POLO          -39.4756436950       42.7784648441      -12.1205543781  HEAD      162             0.0000000000
       163       163  CHL1      POLO           53.8607761914       54.8070443780      -12.0342848368  HEAD      163             0.0000000000
       164       164  CHL1      POLO           48.3946587191      -42.8300124789      -11.9924617424  HEAD      164             0.0000000000
       165       165  CHL1      POLO           40.0079017651       13.8058151441      -11.8336910802  HEAD      165             0.0000000000
       166       166  CHL1      POLO          -46.6838782063       55.0451679411      -12.0077419670  HEAD      166             0.0000000000
       167       167  CHL1      POLO           56.4407437975       38.1330506126      -11.9201747073  HEAD      167             0.0000000000
       168       168  CHL1      POLO          -10.0551709691      -47.3635465541      -12.0169447893  HEAD      168             0.0000000000
       169       169  CHL1      POLO          -32.2018893787       38.6305053898      -12.0456130442  HEAD      169             0.0000000000
       170       170  CHL1      POLO          -55.0257818063      -33.3344839769      -12.1005787677  HEAD      170             0.0000000000
       171       171  CHL1      POLO            5.8771857511      -54.0819462553      -12.1148122103  HEAD      171             0.0000000000
       172       172  CHL1      POLO          -18.4945786174      -34.6718011171      -11.9331615389  HEAD      172             0.0000000000
       173       173  CHL1      POLO           56.7964229575       20.7239952844      -12.0792944469  HEAD      173             0.0000000000
       174       174  CHL1      POLO          -46.0679427137       21.2867418207      -11.8342362829  HEAD      174             0.0000000000
       175       175  CHL1      POLO           26.9285018953      -43.7245928613      -12.0179629585  HEAD      175             0.0000000000
       176       176  CHL1      POLO           42.1326992963      -48.5254037679      -11.8301529496  HEAD      176             0.0000000000
       177       177  CHL1      POLO           39.9984792832       45.3473359018      -12.0093769483  HEAD      177             0.0000000000
       178       178  CHL1      POLO          -10.4276546423      -39.1013065289      -12.0452659693  HEAD      178             0.0000000000
       179       179  CHL1      POLO           38.9695406827      -23.7569753676      -11.9711417668  HEAD      179             0.0000000000
       180       180  CHL1      POLO          -24.7529197746      -48.6337125142      -11.9249427965  HEAD      180             0.0000000000
       181       181  CHL1      POLO          -54.0196436125      -50.3678994930      -11.9446700151  HEAD      181             0.0000000000
       182       182  CHL1      POLO          -32.3819321568       47.5205607096      -11.8716005554  HEAD      182             0.0000000000
       183       183  CHL1      POLO           30.6142192871       56.3438645952      -11.9906709662  HEAD      183             0.0000000000
       184       184  CHL1      POLO           48.2558042284       42.2384774650      -12.0690704437  HEAD      184             0.0000000000
       185       185  CHL1      POLO           46.8260877026       50.5035453154      -11.9690430734  HEAD      185             0.0000000000
       186       186  CHL1      POLO           56.2756684310       -4.4378839387      -11.9724989874  HEAD      186             0.0000000000
       187       187  POPC      POLO          -40.4993446446      -17.7182923397      -11.9736714781  HEAD      187             0.0000000000
       188       188  POPC      POLO          -16.7646904835       56.7844244360      -12.0883829697  HEAD      188             0.0000000000
       189       189  POPC      POLO           46.1828089222      -16.8695956300      -11.9934955648  HEAD      189             0.0000000000
       190       190  POPC      POLO          -54.0561506643       42.3698570814      -11.9703096331  HEAD      190             0.0000000000
       191       191  POPC      POLO          -10.7625027928       38.1845457161      -11.8983887986  HEAD      191             0.0000000000
       192       192  POPC      POLO           45.2413363554      -58.6046155154      -11.8841167292  HEAD      192             0.0000000000
       193       193  POPC      POLO          -32.3847155386      -16.4962217712      -11.9350390169  HEAD      193             0.0000000000
       194       194  POPC      POLO          -48.2100802572      -21.1756284254      -11.9439521850  HEAD      194             0.0000000000
       195       195  POPC      POLO           21.2972741111       26.0763390880      -12.5175646630  HEAD      195             0.0000000000
       196       196  POPC      POLO           49.3657303550       34.0428597442      -11.9892775456  HEAD      196             0.0000000000
       197       197  POPC      POLO           56.4151558597      -55.1009028418      -12.0611560531  HEAD      197             0.0000000000
       198       198  POPC      POLO          -46.4596541769      -54.1266465024      -12.0559384582  HEAD      198             0.0000000000
       199       199  POPC      POLO           48.0478387086       -7.5982409577      -12.0061577851  HEAD      199             0.0000000000
       200       200  POPC      POLO           19.3329215056      -41.3031291964      -12.0732101679  HEAD      200             0.0000000000
       201       201  POPC      POLO            7.2641563986       55.3324037728      -11.8814022576  HEAD      201             0.0000000000
       202       202  POPC      POLO           22.4839955760      -58.5856208598      -12.0193060308  HEAD      202             0.0000000000
       203       203  POPC      POLO           -1.0859950987       58.0662034237      -12.0134368398  HEAD      203             0.0000000000
       204       204  POPC      POLO          -17.1203276308      -52.1115155691      -12.0743087867  HEAD      204             0.0000000000
       205       205  POPC      POLO           23.8970251698       50.5159391597      -11.9663843937  HEAD      205             0.0000000000
       206       206  POPC      POLO          -24.8088369990       34.9251109520      -11.9960533844  HEAD      206             0.0000000000
       207       207  POPC      POLO           10.4015853795       47.7381498121      -12.0176642326  HEAD      207             0.0000000000
       208       208  POPC      POLO          -45.9791981652       12.9863944956      -12.1196436583  HEAD      208             0.0000000000
       209       209  POPC      POLO           32.1886138758       16.4674552286      -12.0291076361  HEAD      209             0.0000000000
       210       210  POPC      POLO          -54.4402060095      -41.8393230850      -11.9805732727  HEAD      210             0.0000000000
       211       211  POPC      POLO           31.8555189470       47.9223466217      -12.0598874415  HEAD      211             0.0000000000
       212       212  POPC      POLO            4.6872447257      -46.3387646732      -12.0527863085  HEAD      212             0.0000000000
       213       213  POPC      POLO           39.9746639053      -31.9706296895      -11.9826349414  HEAD      213             0.0000000000
       214       214  POPC      POLO          -38.3423798684       25.2521622022      -12.0346255969  HEAD      214             0.0000000000
       215       215  POPC      POLO           56.0198652150      -46.4807359473      -11.9484842964  HEAD      215             0.0000000000
       216       216  POPC      POLO           56.6436581856        4.5239509589      -11.8721810319  HEAD      216             0.0000000000
       217       217  POPC      POLO          -31.4935945457       29.8598518291      -12.0201258372  HEAD      217             0.0000000000
       218       218  POPC      POLO           -2.9530110232      -42.6680353026      -12.0933758037  HEAD      218             0.0000000000
       219       219  POPC      POLO          -38.9466988228      -58.1563895194      -11.9565643513  HEAD      219             0.0000000000
       220       220  POPC      POLO           25.0592938842      -34.5651973328      -11.9205038578  HEAD      220             0.0000000000
       221       221  POPC      POLO          -23.8347860220       51.8861048452      -11.8652957015  HEAD      221             0.0000000000
       222       222  POPC      POLO          -26.2179645536      -31.7032389107      -11.8876917840  HEAD      222             0.0000000000
       223       223  POPC      POLO          -24.0769863900       26.1917869118      -12.2480125934  HEAD      223             0.0000000000
       224       224  POPC      POLO           -7.8270069692       45.7138038397      -11.9967833295  HEAD      224             0.0000000000
       225       225  POPC      POLO           34.5634044151      -46.3339057184      -11.9149789819  HEAD      225             0.0000000000
       226       226  POPC      POLO           50.3400386071       25.6885366598      -12.1117927095  HEAD      226             0.0000000000
       227       227  POPC      POLO          -55.4620965098      -17.0270440020      -12.0230915365  HEAD      227             0.0000000000
       228       228  POPC      POLO          -17.1114480012       32.0749728925      -11.8662566671  HEAD      228             0.0000000000
       229       229  POPC      POLO           20.9360922198      -49.9181005784      -11.9431509109  HEAD      229             0.0000000000
       230       230  POPC      POLO          -17.7828365100      -43.3903027438      -12.0456103660  HEAD      230             0.0000000000
       231       231  POPC      POLO           16.1001681761       53.5651704249      -12.0964864998  HEAD      231             0.0000000000
       232       232  POPC      POLO           32.0784408655      -29.4188356797      -12.0329638843  HEAD      232             0.0000000000
       233       233  POPC      POLO          -18.1714926880       40.5373001812      -12.1194431441  HEAD      233             0.0000000000
       234       234  POPC      POLO           11.3659347280       38.8357996788      -11.9123730041  HEAD      234             0.0000000000
       235       235  POPC      POLO          -31.8444232393      -53.4837359774      -11.8266404949  HEAD      235             0.0000000000
       236       236  POPC      POLO           37.0351739427      -15.8727411842      -11.8931111894  HEAD      236             0.0000000000
       237       237  POPC      POLO           53.9953289137      -20.8297029275      -12.1114840921  HEAD      237             0.0000000000
       238       238  POPC      POLO           13.0004709228      -47.1122427903      -11.9226567864  HEAD      238             0.0000000000
       239       239  POPC      POLO           46.0699412431        7.9322931148      -12.0742103736  HEAD      239             0.0000000000
       240       240  POPC      POLO          -30.0222238282      -24.2747655031      -12.0385612401  HEAD      240             0.0000000000
       241       241  POPC      POLO          -38.6502224968       -9.5873361137      -12.0440959985  HEAD      241             0.0000000000
       242       242  POPC      POLO           57.2737696835       12.5778714619      -11.9040699092  HEAD      242             0.0000000000
       243       243  POPC      POLO           44.3805607601       20.6127683141      -11.7899014644  HEAD      243             0.0000000000
       244       244  POPC      POLO          -53.9972057325      -58.6748363290      -11.9799615235  HEAD      244             0.0000000000
       245       245  POPC      POLO           47.6767085706      -34.3221138814      -11.9281526635  HEAD      245             0.0000000000
       246       246  POPC      POLO           55.4408569558       46.3207125696      -11.9966991432  HEAD      246             0.0000000000
       247       247  POPC      POLO          -55.0233514629       50.6067072563      -11.7758602897  HEAD      247             0.0000000000
       248       248  POPC      POLO          -40.3489153561      -32.9685285536      -11.9107709859  HEAD      248             0.0000000000
       249       249  POPC      POLO          -39.5694141493       -1.5627408220      -12.0576355017  HEAD      249             0.0000000000
       250       250  POPC      POLO          -53.3058745564       25.3456668950      -11.9998404689  HEAD      250             0.0000000000
       251       251  POPC      POLO           28.9223863257       24.6554153576      -11.9324512082  HEAD      251             0.0000000000
       252       252  POPC      POLO          -15.8623309980       48.3242164711      -12.0574334113  HEAD      252             0.0000000000
       253       253  POPC      POLO          -47.4158574074      -29.2352616794      -12.0686531622  HEAD      253             0.0000000000
       254       254  POPC      POLO          -53.3430648119       33.9635778556      -12.0216974585  HEAD      254             0.0000000000
       255       255  POPC      POLO          -32.2453837068      -44.9339734812      -12.0185164806  HEAD      255             0.0000000000
       256       256  POPC      POLO           18.6103846354       34.5022267346      -12.0386588791  HEAD      256             0.0000000000
       257       257  POPC      POLO           34.7021908316       31.1989706748      -12.0161980625  HEAD      257             0.0000000000
       258       258  POPC      POLO           46.8369634721      -25.6803666893      -11.9992587260  HEAD      258             0.0000000000
       259       259  POPC      POLO           11.8815383555      -38.5270246739      -12.0713463602  HEAD      259             0.0000000000
       260       260  POPC      POLO          -46.9162048819       46.9806499244      -12.1576752764  HEAD      260             0.0000000000
       261       261  POPC      POLO           28.8995184159      -52.5318881776      -11.9052327262  HEAD      261             0.0000000000
       262       262  POPC      POLO           -2.1778137195      -50.9012363179      -11.9292862377  HEAD      262             0.0000000000
       263       263  POPC      POLO           36.8037907070      -55.1589126419      -12.1489431069  HEAD      263             0.0000000000
       264       264  POPC      POLO           24.2360435049      -26.2191957152      -12.2228066414  HEAD      264             0.0000000000
       265       265  POPC      POLO          -54.2764677588       -8.7416777905      -12.0077746567  HEAD      265             0.0000000000
       266       266  POPC      POLO           14.3153949102      -55.7809595924      -11.9072191050  HEAD      266             0.0000000000
       267       267  POPC      POLO          -46.8016850530      -45.8157427826      -11.9171412670  HEAD      267             0.0000000000
       268       268  POPC      POLO          -47.6105131861      -37.5651168595      -12.1023251031  HEAD      268             0.0000000000
       269       269  POPC      POLO          -24.2700608560      -57.0581101496      -12.0081278989  HEAD      269             0.0000000000
       270       270  POPC      POLO          -31.4901641371       55.6706853141      -12.0531723005  HEAD      270             0.0000000000
       271       271  POPC      POLO           40.8573439809      -40.0663084777      -11.9329759274  HEAD      271             0.0000000000
       272       272  POPC      POLO           -9.3066272054      -55.4966113642      -12.0142532101  HEAD      272             0.0000000000
       273       273  POPC      POLO          -33.0252608992      -36.1896260566      -11.9908310409  HEAD      273             0.0000000000
       274       274  POPC      POLO           54.6696602033      -12.6564979804      -12.0487530539  HEAD      274             0.0000000000
       275       275  POPC      POLO           49.5586541315      -51.4937076899      -12.0496457478  HEAD      275             0.0000000000
       276       276  POPC      POLO           25.2214713873       41.8070776881      -11.9448337479  HEAD      276             0.0000000000
       277       277  POPC      POLO           -2.7465932586       39.2958943560      -12.1683801156  HEAD      277             0.0000000000
       278       278  POPC      POLO          -52.9549308654        8.2832917456      -12.0330876268  HEAD      278             0.0000000000
       279       279  POPC      POLO           41.2470615127       37.0237758457      -12.1324088302  HEAD      279             0.0000000000
       280       280  POPC      POLO            4.0244998410      -38.4694614420      -12.1146658620  HEAD      280             0.0000000000
       281       281  POPC      POLO          -46.1592209605       29.7539877979      -11.9642194600  HEAD      281             0.0000000000
       282       282  POPC      POLO           32.8027988250      -37.8803650259      -11.8329028447  HEAD      282             0.0000000000
       283       283  POPC      POLO          -39.4977018517       51.0776978274      -12.0007238501  HEAD      283             0.0000000000
       284       284  POPC      POLO          -30.4539611287       20.8961269884      -12.3028047319  HEAD      284             0.0000000000
       285       285  POPC      POLO          -25.4153860723       43.7847095017      -11.9114443879  HEAD      285             0.0000000000
       286       286  POPC      POLO          -47.0398511246      -13.0670892651      -12.1519807089  HEAD      286             0.0000000000
       287       287  POPC      POLO           37.7893017820        5.9312381922      -11.9075783632  HEAD      287             0.0000000000
       288       288  POPC      POLO          -39.2699777122      -49.7525576405      -12.0423569255  HEAD      288             0.0000000000
       289       289  POPC      POLO            0.1976647127       49.6065262173      -11.9828870197  HEAD      289             0.0000000000
       290       290  POPC      POLO          -21.8539845492      -25.1223414165      -12.3456622977  HEAD      290             0.0000000000
       291       291  POPC      POLO           57.2266224024       29.7355335294      -12.1246516474  HEAD      291             0.0000000000
       292       292  POPC      POLO          -45.8903208642        3.8241355007      -12.0699985431  HEAD      292             0.0000000000
       293       293  POPC      POLO           26.6796011273       33.0711345735      -11.8751676943  HEAD      293             0.0000000000
       294       294  POPC      POLO          -46.9573153183       -5.0504380553      -11.9826847358  HEAD      294             0.0000000000
       295       295  POPC      POLO          -55.6535493263      -25.1916164459      -12.0128391282  HEAD      295             0.0000000000
       296       296  POPC      POLO           -8.2805290347       53.7967159828      -11.9738376056  HEAD      296             0.0000000000
       297       297  POPC      POLO           17.7436576727       44.4485913037      -12.1467653703  HEAD      297             0.0000000000
       298       298  POPC      POLO           30.7247728387      -20.9594419979      -12.2472059225  HEAD      298             0.0000000000
       299       299  POPC      POLO           54.8195226266      -29.1999577682      -11.9044116012  HEAD      299             0.0000000000
       300       300  POPC      POLO          -39.2612466258        8.7356182040      -11.9518862221  HEAD      300             0.0000000000
       301       301  POPC      POLO          -53.1453385793       16.9360955632      -12.0421185140  HEAD      301             0.0000000000
       302       302  POPC      POLO          -46.4498994286       38.4616098514      -12.0758929987  HEAD      302             0.0000000000
       303       303  POPC      POLO           49.7078995395        0.5905222603      -11.9629622845  HEAD      303             0.0000000000
       304       304  POPC      POLO           42.0154874558       -0.7683940388      -11.9851018472  HEAD      304             0.0000000000
       305       305  POPC      POLO            4.3535773061       42.7378143448      -12.0830325503  HEAD      305             0.0000000000
       306       306  POPC      POLO           32.9737987251       39.4554931333      -11.9440315725  HEAD      306             0.0000000000
       307       307  POPC      POLO           49.9431072790       15.0637351107      -11.9972814358  HEAD      307             0.0000000000
       308       308  POPC      POLO          -37.7570113030       16.7247273395      -12.0247724860  HEAD      308             0.0000000000
       309       309  POPC      POLO          -38.7893378277       33.9560026987      -12.0415489627  HEAD      309             0.0000000000
       310       310  POPC      POLO           38.6477092516       53.7304651127      -11.9335038408  HEAD      310             0.0000000000
       311       311  POPC      POLO          -25.5085523574      -40.1063895814      -12.0437337817  HEAD      311             0.0000000000
       312       312  POPC      POLO           55.1796082924      -37.7942472894      -11.8508970941  HEAD      312             0.0000000000
